ZCORN
102*2018.038256 102*2017.357567 
102*2017.357567 102*2016.676879 
102*2016.676879 102*2015.996190 
102*2015.996190 102*2015.315501 
102*2015.315501 102*2014.634812 
102*2014.634812 102*2013.954123 
102*2013.954123 102*2013.273434 
102*2013.273434 102*2012.592745 
102*2012.592745 102*2011.912056 
102*2011.912056 102*2011.231367 
102*2011.231367 102*2010.550678 
102*2010.550678 102*2009.869989 
102*2009.869989 102*2009.189300 
102*2009.189300 102*2008.508612 
102*2008.508612 102*2007.827923 
102*2007.827923 102*2007.147234 
102*2007.147234 102*2006.466545 
102*2006.466545 102*2005.785856 
102*2005.785856 102*2005.105167 
102*2005.105167 102*2004.424478 
102*2004.424478 102*2003.743789 
102*2003.743789 102*2003.063100 
102*2003.063100 102*2002.382411 
102*2002.382411 102*2001.701722 
102*2001.701722 102*2001.021033 
102*2001.021033 102*2000.340344 
102*2000.340344 102*1999.659656 
102*1999.659656 102*1998.978967 
102*1998.978967 102*1998.298278 
102*1998.298278 102*1997.617589 
102*1997.617589 102*1996.936900 
102*1996.936900 102*1996.256211 
102*1996.256211 102*1995.575522 
102*1995.575522 102*1994.894833 
102*1994.894833 102*1994.214144 
102*1994.214144 102*1993.533455 
102*1993.533455 102*1992.852766 
102*1992.852766 102*1992.172077 
102*1992.172077 102*1991.491388 
102*1991.491388 102*1990.810700 
102*1990.810700 102*1990.130011 
102*1990.130011 102*1989.449322 
102*1989.449322 102*1988.768633 
102*1988.768633 102*1988.087944 
102*1988.087944 102*1987.407255 
102*1987.407255 102*1986.726566 
102*1986.726566 102*1986.045877 
102*1986.045877 102*1985.365188 
102*1985.365188 102*1984.684499 
102*1984.684499 102*1984.003810 
102*1984.003810 102*1983.323121 
102*2020.538256 102*2019.857567 
102*2019.857567 102*2019.176879 
102*2019.176879 102*2018.496190 
102*2018.496190 102*2017.815501 
102*2017.815501 102*2017.134812 
102*2017.134812 102*2016.454123 
102*2016.454123 102*2015.773434 
102*2015.773434 102*2015.092745 
102*2015.092745 102*2014.412056 
102*2014.412056 102*2013.731367 
102*2013.731367 102*2013.050678 
102*2013.050678 102*2012.369989 
102*2012.369989 102*2011.689300 
102*2011.689300 102*2011.008612 
102*2011.008612 102*2010.327923 
102*2010.327923 102*2009.647234 
102*2009.647234 102*2008.966545 
102*2008.966545 102*2008.285856 
102*2008.285856 102*2007.605167 
102*2007.605167 102*2006.924478 
102*2006.924478 102*2006.243789 
102*2006.243789 102*2005.563100 
102*2005.563100 102*2004.882411 
102*2004.882411 102*2004.201722 
102*2004.201722 102*2003.521033 
102*2003.521033 102*2002.840344 
102*2002.840344 102*2002.159656 
102*2002.159656 102*2001.478967 
102*2001.478967 102*2000.798278 
102*2000.798278 102*2000.117589 
102*2000.117589 102*1999.436900 
102*1999.436900 102*1998.756211 
102*1998.756211 102*1998.075522 
102*1998.075522 102*1997.394833 
102*1997.394833 102*1996.714144 
102*1996.714144 102*1996.033455 
102*1996.033455 102*1995.352766 
102*1995.352766 102*1994.672077 
102*1994.672077 102*1993.991388 
102*1993.991388 102*1993.310700 
102*1993.310700 102*1992.630011 
102*1992.630011 102*1991.949322 
102*1991.949322 102*1991.268633 
102*1991.268633 102*1990.587944 
102*1990.587944 102*1989.907255 
102*1989.907255 102*1989.226566 
102*1989.226566 102*1988.545877 
102*1988.545877 102*1987.865188 
102*1987.865188 102*1987.184499 
102*1987.184499 102*1986.503810 
102*1986.503810 102*1985.823121 
102*2020.538256 102*2019.857567 
102*2019.857567 102*2019.176879 
102*2019.176879 102*2018.496190 
102*2018.496190 102*2017.815501 
102*2017.815501 102*2017.134812 
102*2017.134812 102*2016.454123 
102*2016.454123 102*2015.773434 
102*2015.773434 102*2015.092745 
102*2015.092745 102*2014.412056 
102*2014.412056 102*2013.731367 
102*2013.731367 102*2013.050678 
102*2013.050678 102*2012.369989 
102*2012.369989 102*2011.689300 
102*2011.689300 102*2011.008612 
102*2011.008612 102*2010.327923 
102*2010.327923 102*2009.647234 
102*2009.647234 102*2008.966545 
102*2008.966545 102*2008.285856 
102*2008.285856 102*2007.605167 
102*2007.605167 102*2006.924478 
102*2006.924478 102*2006.243789 
102*2006.243789 102*2005.563100 
102*2005.563100 102*2004.882411 
102*2004.882411 102*2004.201722 
102*2004.201722 102*2003.521033 
102*2003.521033 102*2002.840344 
102*2002.840344 102*2002.159656 
102*2002.159656 102*2001.478967 
102*2001.478967 102*2000.798278 
102*2000.798278 102*2000.117589 
102*2000.117589 102*1999.436900 
102*1999.436900 102*1998.756211 
102*1998.756211 102*1998.075522 
102*1998.075522 102*1997.394833 
102*1997.394833 102*1996.714144 
102*1996.714144 102*1996.033455 
102*1996.033455 102*1995.352766 
102*1995.352766 102*1994.672077 
102*1994.672077 102*1993.991388 
102*1993.991388 102*1993.310700 
102*1993.310700 102*1992.630011 
102*1992.630011 102*1991.949322 
102*1991.949322 102*1991.268633 
102*1991.268633 102*1990.587944 
102*1990.587944 102*1989.907255 
102*1989.907255 102*1989.226566 
102*1989.226566 102*1988.545877 
102*1988.545877 102*1987.865188 
102*1987.865188 102*1987.184499 
102*1987.184499 102*1986.503810 
102*1986.503810 102*1985.823121 
102*2023.038256 102*2022.357567 
102*2022.357567 102*2021.676879 
102*2021.676879 102*2020.996190 
102*2020.996190 102*2020.315501 
102*2020.315501 102*2019.634812 
102*2019.634812 102*2018.954123 
102*2018.954123 102*2018.273434 
102*2018.273434 102*2017.592745 
102*2017.592745 102*2016.912056 
102*2016.912056 102*2016.231367 
102*2016.231367 102*2015.550678 
102*2015.550678 102*2014.869989 
102*2014.869989 102*2014.189300 
102*2014.189300 102*2013.508612 
102*2013.508612 102*2012.827923 
102*2012.827923 102*2012.147234 
102*2012.147234 102*2011.466545 
102*2011.466545 102*2010.785856 
102*2010.785856 102*2010.105167 
102*2010.105167 102*2009.424478 
102*2009.424478 102*2008.743789 
102*2008.743789 102*2008.063100 
102*2008.063100 102*2007.382411 
102*2007.382411 102*2006.701722 
102*2006.701722 102*2006.021033 
102*2006.021033 102*2005.340344 
102*2005.340344 102*2004.659656 
102*2004.659656 102*2003.978967 
102*2003.978967 102*2003.298278 
102*2003.298278 102*2002.617589 
102*2002.617589 102*2001.936900 
102*2001.936900 102*2001.256211 
102*2001.256211 102*2000.575522 
102*2000.575522 102*1999.894833 
102*1999.894833 102*1999.214144 
102*1999.214144 102*1998.533455 
102*1998.533455 102*1997.852766 
102*1997.852766 102*1997.172077 
102*1997.172077 102*1996.491388 
102*1996.491388 102*1995.810700 
102*1995.810700 102*1995.130011 
102*1995.130011 102*1994.449322 
102*1994.449322 102*1993.768633 
102*1993.768633 102*1993.087944 
102*1993.087944 102*1992.407255 
102*1992.407255 102*1991.726566 
102*1991.726566 102*1991.045877 
102*1991.045877 102*1990.365188 
102*1990.365188 102*1989.684499 
102*1989.684499 102*1989.003810 
102*1989.003810 102*1988.323121 
102*2023.038256 102*2022.357567 
102*2022.357567 102*2021.676879 
102*2021.676879 102*2020.996190 
102*2020.996190 102*2020.315501 
102*2020.315501 102*2019.634812 
102*2019.634812 102*2018.954123 
102*2018.954123 102*2018.273434 
102*2018.273434 102*2017.592745 
102*2017.592745 102*2016.912056 
102*2016.912056 102*2016.231367 
102*2016.231367 102*2015.550678 
102*2015.550678 102*2014.869989 
102*2014.869989 102*2014.189300 
102*2014.189300 102*2013.508612 
102*2013.508612 102*2012.827923 
102*2012.827923 102*2012.147234 
102*2012.147234 102*2011.466545 
102*2011.466545 102*2010.785856 
102*2010.785856 102*2010.105167 
102*2010.105167 102*2009.424478 
102*2009.424478 102*2008.743789 
102*2008.743789 102*2008.063100 
102*2008.063100 102*2007.382411 
102*2007.382411 102*2006.701722 
102*2006.701722 102*2006.021033 
102*2006.021033 102*2005.340344 
102*2005.340344 102*2004.659656 
102*2004.659656 102*2003.978967 
102*2003.978967 102*2003.298278 
102*2003.298278 102*2002.617589 
102*2002.617589 102*2001.936900 
102*2001.936900 102*2001.256211 
102*2001.256211 102*2000.575522 
102*2000.575522 102*1999.894833 
102*1999.894833 102*1999.214144 
102*1999.214144 102*1998.533455 
102*1998.533455 102*1997.852766 
102*1997.852766 102*1997.172077 
102*1997.172077 102*1996.491388 
102*1996.491388 102*1995.810700 
102*1995.810700 102*1995.130011 
102*1995.130011 102*1994.449322 
102*1994.449322 102*1993.768633 
102*1993.768633 102*1993.087944 
102*1993.087944 102*1992.407255 
102*1992.407255 102*1991.726566 
102*1991.726566 102*1991.045877 
102*1991.045877 102*1990.365188 
102*1990.365188 102*1989.684499 
102*1989.684499 102*1989.003810 
102*1989.003810 102*1988.323121 
102*2025.538256 102*2024.857567 
102*2024.857567 102*2024.176879 
102*2024.176879 102*2023.496190 
102*2023.496190 102*2022.815501 
102*2022.815501 102*2022.134812 
102*2022.134812 102*2021.454123 
102*2021.454123 102*2020.773434 
102*2020.773434 102*2020.092745 
102*2020.092745 102*2019.412056 
102*2019.412056 102*2018.731367 
102*2018.731367 102*2018.050678 
102*2018.050678 102*2017.369989 
102*2017.369989 102*2016.689300 
102*2016.689300 102*2016.008612 
102*2016.008612 102*2015.327923 
102*2015.327923 102*2014.647234 
102*2014.647234 102*2013.966545 
102*2013.966545 102*2013.285856 
102*2013.285856 102*2012.605167 
102*2012.605167 102*2011.924478 
102*2011.924478 102*2011.243789 
102*2011.243789 102*2010.563100 
102*2010.563100 102*2009.882411 
102*2009.882411 102*2009.201722 
102*2009.201722 102*2008.521033 
102*2008.521033 102*2007.840344 
102*2007.840344 102*2007.159656 
102*2007.159656 102*2006.478967 
102*2006.478967 102*2005.798278 
102*2005.798278 102*2005.117589 
102*2005.117589 102*2004.436900 
102*2004.436900 102*2003.756211 
102*2003.756211 102*2003.075522 
102*2003.075522 102*2002.394833 
102*2002.394833 102*2001.714144 
102*2001.714144 102*2001.033455 
102*2001.033455 102*2000.352766 
102*2000.352766 102*1999.672077 
102*1999.672077 102*1998.991388 
102*1998.991388 102*1998.310700 
102*1998.310700 102*1997.630011 
102*1997.630011 102*1996.949322 
102*1996.949322 102*1996.268633 
102*1996.268633 102*1995.587944 
102*1995.587944 102*1994.907255 
102*1994.907255 102*1994.226566 
102*1994.226566 102*1993.545877 
102*1993.545877 102*1992.865188 
102*1992.865188 102*1992.184499 
102*1992.184499 102*1991.503810 
102*1991.503810 102*1990.823121 
102*2025.538256 102*2024.857567 
102*2024.857567 102*2024.176879 
102*2024.176879 102*2023.496190 
102*2023.496190 102*2022.815501 
102*2022.815501 102*2022.134812 
102*2022.134812 102*2021.454123 
102*2021.454123 102*2020.773434 
102*2020.773434 102*2020.092745 
102*2020.092745 102*2019.412056 
102*2019.412056 102*2018.731367 
102*2018.731367 102*2018.050678 
102*2018.050678 102*2017.369989 
102*2017.369989 102*2016.689300 
102*2016.689300 102*2016.008612 
102*2016.008612 102*2015.327923 
102*2015.327923 102*2014.647234 
102*2014.647234 102*2013.966545 
102*2013.966545 102*2013.285856 
102*2013.285856 102*2012.605167 
102*2012.605167 102*2011.924478 
102*2011.924478 102*2011.243789 
102*2011.243789 102*2010.563100 
102*2010.563100 102*2009.882411 
102*2009.882411 102*2009.201722 
102*2009.201722 102*2008.521033 
102*2008.521033 102*2007.840344 
102*2007.840344 102*2007.159656 
102*2007.159656 102*2006.478967 
102*2006.478967 102*2005.798278 
102*2005.798278 102*2005.117589 
102*2005.117589 102*2004.436900 
102*2004.436900 102*2003.756211 
102*2003.756211 102*2003.075522 
102*2003.075522 102*2002.394833 
102*2002.394833 102*2001.714144 
102*2001.714144 102*2001.033455 
102*2001.033455 102*2000.352766 
102*2000.352766 102*1999.672077 
102*1999.672077 102*1998.991388 
102*1998.991388 102*1998.310700 
102*1998.310700 102*1997.630011 
102*1997.630011 102*1996.949322 
102*1996.949322 102*1996.268633 
102*1996.268633 102*1995.587944 
102*1995.587944 102*1994.907255 
102*1994.907255 102*1994.226566 
102*1994.226566 102*1993.545877 
102*1993.545877 102*1992.865188 
102*1992.865188 102*1992.184499 
102*1992.184499 102*1991.503810 
102*1991.503810 102*1990.823121 
102*2028.038256 102*2027.357567 
102*2027.357567 102*2026.676879 
102*2026.676879 102*2025.996190 
102*2025.996190 102*2025.315501 
102*2025.315501 102*2024.634812 
102*2024.634812 102*2023.954123 
102*2023.954123 102*2023.273434 
102*2023.273434 102*2022.592745 
102*2022.592745 102*2021.912056 
102*2021.912056 102*2021.231367 
102*2021.231367 102*2020.550678 
102*2020.550678 102*2019.869989 
102*2019.869989 102*2019.189300 
102*2019.189300 102*2018.508612 
102*2018.508612 102*2017.827923 
102*2017.827923 102*2017.147234 
102*2017.147234 102*2016.466545 
102*2016.466545 102*2015.785856 
102*2015.785856 102*2015.105167 
102*2015.105167 102*2014.424478 
102*2014.424478 102*2013.743789 
102*2013.743789 102*2013.063100 
102*2013.063100 102*2012.382411 
102*2012.382411 102*2011.701722 
102*2011.701722 102*2011.021033 
102*2011.021033 102*2010.340344 
102*2010.340344 102*2009.659656 
102*2009.659656 102*2008.978967 
102*2008.978967 102*2008.298278 
102*2008.298278 102*2007.617589 
102*2007.617589 102*2006.936900 
102*2006.936900 102*2006.256211 
102*2006.256211 102*2005.575522 
102*2005.575522 102*2004.894833 
102*2004.894833 102*2004.214144 
102*2004.214144 102*2003.533455 
102*2003.533455 102*2002.852766 
102*2002.852766 102*2002.172077 
102*2002.172077 102*2001.491388 
102*2001.491388 102*2000.810700 
102*2000.810700 102*2000.130011 
102*2000.130011 102*1999.449322 
102*1999.449322 102*1998.768633 
102*1998.768633 102*1998.087944 
102*1998.087944 102*1997.407255 
102*1997.407255 102*1996.726566 
102*1996.726566 102*1996.045877 
102*1996.045877 102*1995.365188 
102*1995.365188 102*1994.684499 
102*1994.684499 102*1994.003810 
102*1994.003810 102*1993.323121 
102*2028.038256 102*2027.357567 
102*2027.357567 102*2026.676879 
102*2026.676879 102*2025.996190 
102*2025.996190 102*2025.315501 
102*2025.315501 102*2024.634812 
102*2024.634812 102*2023.954123 
102*2023.954123 102*2023.273434 
102*2023.273434 102*2022.592745 
102*2022.592745 102*2021.912056 
102*2021.912056 102*2021.231367 
102*2021.231367 102*2020.550678 
102*2020.550678 102*2019.869989 
102*2019.869989 102*2019.189300 
102*2019.189300 102*2018.508612 
102*2018.508612 102*2017.827923 
102*2017.827923 102*2017.147234 
102*2017.147234 102*2016.466545 
102*2016.466545 102*2015.785856 
102*2015.785856 102*2015.105167 
102*2015.105167 102*2014.424478 
102*2014.424478 102*2013.743789 
102*2013.743789 102*2013.063100 
102*2013.063100 102*2012.382411 
102*2012.382411 102*2011.701722 
102*2011.701722 102*2011.021033 
102*2011.021033 102*2010.340344 
102*2010.340344 102*2009.659656 
102*2009.659656 102*2008.978967 
102*2008.978967 102*2008.298278 
102*2008.298278 102*2007.617589 
102*2007.617589 102*2006.936900 
102*2006.936900 102*2006.256211 
102*2006.256211 102*2005.575522 
102*2005.575522 102*2004.894833 
102*2004.894833 102*2004.214144 
102*2004.214144 102*2003.533455 
102*2003.533455 102*2002.852766 
102*2002.852766 102*2002.172077 
102*2002.172077 102*2001.491388 
102*2001.491388 102*2000.810700 
102*2000.810700 102*2000.130011 
102*2000.130011 102*1999.449322 
102*1999.449322 102*1998.768633 
102*1998.768633 102*1998.087944 
102*1998.087944 102*1997.407255 
102*1997.407255 102*1996.726566 
102*1996.726566 102*1996.045877 
102*1996.045877 102*1995.365188 
102*1995.365188 102*1994.684499 
102*1994.684499 102*1994.003810 
102*1994.003810 102*1993.323121 
102*2030.538256 102*2029.857567 
102*2029.857567 102*2029.176879 
102*2029.176879 102*2028.496190 
102*2028.496190 102*2027.815501 
102*2027.815501 102*2027.134812 
102*2027.134812 102*2026.454123 
102*2026.454123 102*2025.773434 
102*2025.773434 102*2025.092745 
102*2025.092745 102*2024.412056 
102*2024.412056 102*2023.731367 
102*2023.731367 102*2023.050678 
102*2023.050678 102*2022.369989 
102*2022.369989 102*2021.689300 
102*2021.689300 102*2021.008612 
102*2021.008612 102*2020.327923 
102*2020.327923 102*2019.647234 
102*2019.647234 102*2018.966545 
102*2018.966545 102*2018.285856 
102*2018.285856 102*2017.605167 
102*2017.605167 102*2016.924478 
102*2016.924478 102*2016.243789 
102*2016.243789 102*2015.563100 
102*2015.563100 102*2014.882411 
102*2014.882411 102*2014.201722 
102*2014.201722 102*2013.521033 
102*2013.521033 102*2012.840344 
102*2012.840344 102*2012.159656 
102*2012.159656 102*2011.478967 
102*2011.478967 102*2010.798278 
102*2010.798278 102*2010.117589 
102*2010.117589 102*2009.436900 
102*2009.436900 102*2008.756211 
102*2008.756211 102*2008.075522 
102*2008.075522 102*2007.394833 
102*2007.394833 102*2006.714144 
102*2006.714144 102*2006.033455 
102*2006.033455 102*2005.352766 
102*2005.352766 102*2004.672077 
102*2004.672077 102*2003.991388 
102*2003.991388 102*2003.310700 
102*2003.310700 102*2002.630011 
102*2002.630011 102*2001.949322 
102*2001.949322 102*2001.268633 
102*2001.268633 102*2000.587944 
102*2000.587944 102*1999.907255 
102*1999.907255 102*1999.226566 
102*1999.226566 102*1998.545877 
102*1998.545877 102*1997.865188 
102*1997.865188 102*1997.184499 
102*1997.184499 102*1996.503810 
102*1996.503810 102*1995.823121 
102*2030.538256 102*2029.857567 
102*2029.857567 102*2029.176879 
102*2029.176879 102*2028.496190 
102*2028.496190 102*2027.815501 
102*2027.815501 102*2027.134812 
102*2027.134812 102*2026.454123 
102*2026.454123 102*2025.773434 
102*2025.773434 102*2025.092745 
102*2025.092745 102*2024.412056 
102*2024.412056 102*2023.731367 
102*2023.731367 102*2023.050678 
102*2023.050678 102*2022.369989 
102*2022.369989 102*2021.689300 
102*2021.689300 102*2021.008612 
102*2021.008612 102*2020.327923 
102*2020.327923 102*2019.647234 
102*2019.647234 102*2018.966545 
102*2018.966545 102*2018.285856 
102*2018.285856 102*2017.605167 
102*2017.605167 102*2016.924478 
102*2016.924478 102*2016.243789 
102*2016.243789 102*2015.563100 
102*2015.563100 102*2014.882411 
102*2014.882411 102*2014.201722 
102*2014.201722 102*2013.521033 
102*2013.521033 102*2012.840344 
102*2012.840344 102*2012.159656 
102*2012.159656 102*2011.478967 
102*2011.478967 102*2010.798278 
102*2010.798278 102*2010.117589 
102*2010.117589 102*2009.436900 
102*2009.436900 102*2008.756211 
102*2008.756211 102*2008.075522 
102*2008.075522 102*2007.394833 
102*2007.394833 102*2006.714144 
102*2006.714144 102*2006.033455 
102*2006.033455 102*2005.352766 
102*2005.352766 102*2004.672077 
102*2004.672077 102*2003.991388 
102*2003.991388 102*2003.310700 
102*2003.310700 102*2002.630011 
102*2002.630011 102*2001.949322 
102*2001.949322 102*2001.268633 
102*2001.268633 102*2000.587944 
102*2000.587944 102*1999.907255 
102*1999.907255 102*1999.226566 
102*1999.226566 102*1998.545877 
102*1998.545877 102*1997.865188 
102*1997.865188 102*1997.184499 
102*1997.184499 102*1996.503810 
102*1996.503810 102*1995.823121 
102*2033.038256 102*2032.357567 
102*2032.357567 102*2031.676879 
102*2031.676879 102*2030.996190 
102*2030.996190 102*2030.315501 
102*2030.315501 102*2029.634812 
102*2029.634812 102*2028.954123 
102*2028.954123 102*2028.273434 
102*2028.273434 102*2027.592745 
102*2027.592745 102*2026.912056 
102*2026.912056 102*2026.231367 
102*2026.231367 102*2025.550678 
102*2025.550678 102*2024.869989 
102*2024.869989 102*2024.189300 
102*2024.189300 102*2023.508612 
102*2023.508612 102*2022.827923 
102*2022.827923 102*2022.147234 
102*2022.147234 102*2021.466545 
102*2021.466545 102*2020.785856 
102*2020.785856 102*2020.105167 
102*2020.105167 102*2019.424478 
102*2019.424478 102*2018.743789 
102*2018.743789 102*2018.063100 
102*2018.063100 102*2017.382411 
102*2017.382411 102*2016.701722 
102*2016.701722 102*2016.021033 
102*2016.021033 102*2015.340344 
102*2015.340344 102*2014.659656 
102*2014.659656 102*2013.978967 
102*2013.978967 102*2013.298278 
102*2013.298278 102*2012.617589 
102*2012.617589 102*2011.936900 
102*2011.936900 102*2011.256211 
102*2011.256211 102*2010.575522 
102*2010.575522 102*2009.894833 
102*2009.894833 102*2009.214144 
102*2009.214144 102*2008.533455 
102*2008.533455 102*2007.852766 
102*2007.852766 102*2007.172077 
102*2007.172077 102*2006.491388 
102*2006.491388 102*2005.810700 
102*2005.810700 102*2005.130011 
102*2005.130011 102*2004.449322 
102*2004.449322 102*2003.768633 
102*2003.768633 102*2003.087944 
102*2003.087944 102*2002.407255 
102*2002.407255 102*2001.726566 
102*2001.726566 102*2001.045877 
102*2001.045877 102*2000.365188 
102*2000.365188 102*1999.684499 
102*1999.684499 102*1999.003810 
102*1999.003810 102*1998.323121 
102*2033.038256 102*2032.357567 
102*2032.357567 102*2031.676879 
102*2031.676879 102*2030.996190 
102*2030.996190 102*2030.315501 
102*2030.315501 102*2029.634812 
102*2029.634812 102*2028.954123 
102*2028.954123 102*2028.273434 
102*2028.273434 102*2027.592745 
102*2027.592745 102*2026.912056 
102*2026.912056 102*2026.231367 
102*2026.231367 102*2025.550678 
102*2025.550678 102*2024.869989 
102*2024.869989 102*2024.189300 
102*2024.189300 102*2023.508612 
102*2023.508612 102*2022.827923 
102*2022.827923 102*2022.147234 
102*2022.147234 102*2021.466545 
102*2021.466545 102*2020.785856 
102*2020.785856 102*2020.105167 
102*2020.105167 102*2019.424478 
102*2019.424478 102*2018.743789 
102*2018.743789 102*2018.063100 
102*2018.063100 102*2017.382411 
102*2017.382411 102*2016.701722 
102*2016.701722 102*2016.021033 
102*2016.021033 102*2015.340344 
102*2015.340344 102*2014.659656 
102*2014.659656 102*2013.978967 
102*2013.978967 102*2013.298278 
102*2013.298278 102*2012.617589 
102*2012.617589 102*2011.936900 
102*2011.936900 102*2011.256211 
102*2011.256211 102*2010.575522 
102*2010.575522 102*2009.894833 
102*2009.894833 102*2009.214144 
102*2009.214144 102*2008.533455 
102*2008.533455 102*2007.852766 
102*2007.852766 102*2007.172077 
102*2007.172077 102*2006.491388 
102*2006.491388 102*2005.810700 
102*2005.810700 102*2005.130011 
102*2005.130011 102*2004.449322 
102*2004.449322 102*2003.768633 
102*2003.768633 102*2003.087944 
102*2003.087944 102*2002.407255 
102*2002.407255 102*2001.726566 
102*2001.726566 102*2001.045877 
102*2001.045877 102*2000.365188 
102*2000.365188 102*1999.684499 
102*1999.684499 102*1999.003810 
102*1999.003810 102*1998.323121 
102*2035.538256 102*2034.857567 
102*2034.857567 102*2034.176879 
102*2034.176879 102*2033.496190 
102*2033.496190 102*2032.815501 
102*2032.815501 102*2032.134812 
102*2032.134812 102*2031.454123 
102*2031.454123 102*2030.773434 
102*2030.773434 102*2030.092745 
102*2030.092745 102*2029.412056 
102*2029.412056 102*2028.731367 
102*2028.731367 102*2028.050678 
102*2028.050678 102*2027.369989 
102*2027.369989 102*2026.689300 
102*2026.689300 102*2026.008612 
102*2026.008612 102*2025.327923 
102*2025.327923 102*2024.647234 
102*2024.647234 102*2023.966545 
102*2023.966545 102*2023.285856 
102*2023.285856 102*2022.605167 
102*2022.605167 102*2021.924478 
102*2021.924478 102*2021.243789 
102*2021.243789 102*2020.563100 
102*2020.563100 102*2019.882411 
102*2019.882411 102*2019.201722 
102*2019.201722 102*2018.521033 
102*2018.521033 102*2017.840344 
102*2017.840344 102*2017.159656 
102*2017.159656 102*2016.478967 
102*2016.478967 102*2015.798278 
102*2015.798278 102*2015.117589 
102*2015.117589 102*2014.436900 
102*2014.436900 102*2013.756211 
102*2013.756211 102*2013.075522 
102*2013.075522 102*2012.394833 
102*2012.394833 102*2011.714144 
102*2011.714144 102*2011.033455 
102*2011.033455 102*2010.352766 
102*2010.352766 102*2009.672077 
102*2009.672077 102*2008.991388 
102*2008.991388 102*2008.310700 
102*2008.310700 102*2007.630011 
102*2007.630011 102*2006.949322 
102*2006.949322 102*2006.268633 
102*2006.268633 102*2005.587944 
102*2005.587944 102*2004.907255 
102*2004.907255 102*2004.226566 
102*2004.226566 102*2003.545877 
102*2003.545877 102*2002.865188 
102*2002.865188 102*2002.184499 
102*2002.184499 102*2001.503810 
102*2001.503810 102*2000.823121 
102*2035.538256 102*2034.857567 
102*2034.857567 102*2034.176879 
102*2034.176879 102*2033.496190 
102*2033.496190 102*2032.815501 
102*2032.815501 102*2032.134812 
102*2032.134812 102*2031.454123 
102*2031.454123 102*2030.773434 
102*2030.773434 102*2030.092745 
102*2030.092745 102*2029.412056 
102*2029.412056 102*2028.731367 
102*2028.731367 102*2028.050678 
102*2028.050678 102*2027.369989 
102*2027.369989 102*2026.689300 
102*2026.689300 102*2026.008612 
102*2026.008612 102*2025.327923 
102*2025.327923 102*2024.647234 
102*2024.647234 102*2023.966545 
102*2023.966545 102*2023.285856 
102*2023.285856 102*2022.605167 
102*2022.605167 102*2021.924478 
102*2021.924478 102*2021.243789 
102*2021.243789 102*2020.563100 
102*2020.563100 102*2019.882411 
102*2019.882411 102*2019.201722 
102*2019.201722 102*2018.521033 
102*2018.521033 102*2017.840344 
102*2017.840344 102*2017.159656 
102*2017.159656 102*2016.478967 
102*2016.478967 102*2015.798278 
102*2015.798278 102*2015.117589 
102*2015.117589 102*2014.436900 
102*2014.436900 102*2013.756211 
102*2013.756211 102*2013.075522 
102*2013.075522 102*2012.394833 
102*2012.394833 102*2011.714144 
102*2011.714144 102*2011.033455 
102*2011.033455 102*2010.352766 
102*2010.352766 102*2009.672077 
102*2009.672077 102*2008.991388 
102*2008.991388 102*2008.310700 
102*2008.310700 102*2007.630011 
102*2007.630011 102*2006.949322 
102*2006.949322 102*2006.268633 
102*2006.268633 102*2005.587944 
102*2005.587944 102*2004.907255 
102*2004.907255 102*2004.226566 
102*2004.226566 102*2003.545877 
102*2003.545877 102*2002.865188 
102*2002.865188 102*2002.184499 
102*2002.184499 102*2001.503810 
102*2001.503810 102*2000.823121 
102*2038.038256 102*2037.357567 
102*2037.357567 102*2036.676879 
102*2036.676879 102*2035.996190 
102*2035.996190 102*2035.315501 
102*2035.315501 102*2034.634812 
102*2034.634812 102*2033.954123 
102*2033.954123 102*2033.273434 
102*2033.273434 102*2032.592745 
102*2032.592745 102*2031.912056 
102*2031.912056 102*2031.231367 
102*2031.231367 102*2030.550678 
102*2030.550678 102*2029.869989 
102*2029.869989 102*2029.189300 
102*2029.189300 102*2028.508612 
102*2028.508612 102*2027.827923 
102*2027.827923 102*2027.147234 
102*2027.147234 102*2026.466545 
102*2026.466545 102*2025.785856 
102*2025.785856 102*2025.105167 
102*2025.105167 102*2024.424478 
102*2024.424478 102*2023.743789 
102*2023.743789 102*2023.063100 
102*2023.063100 102*2022.382411 
102*2022.382411 102*2021.701722 
102*2021.701722 102*2021.021033 
102*2021.021033 102*2020.340344 
102*2020.340344 102*2019.659656 
102*2019.659656 102*2018.978967 
102*2018.978967 102*2018.298278 
102*2018.298278 102*2017.617589 
102*2017.617589 102*2016.936900 
102*2016.936900 102*2016.256211 
102*2016.256211 102*2015.575522 
102*2015.575522 102*2014.894833 
102*2014.894833 102*2014.214144 
102*2014.214144 102*2013.533455 
102*2013.533455 102*2012.852766 
102*2012.852766 102*2012.172077 
102*2012.172077 102*2011.491388 
102*2011.491388 102*2010.810700 
102*2010.810700 102*2010.130011 
102*2010.130011 102*2009.449322 
102*2009.449322 102*2008.768633 
102*2008.768633 102*2008.087944 
102*2008.087944 102*2007.407255 
102*2007.407255 102*2006.726566 
102*2006.726566 102*2006.045877 
102*2006.045877 102*2005.365188 
102*2005.365188 102*2004.684499 
102*2004.684499 102*2004.003810 
102*2004.003810 102*2003.323121 
102*2038.038256 102*2037.357567 
102*2037.357567 102*2036.676879 
102*2036.676879 102*2035.996190 
102*2035.996190 102*2035.315501 
102*2035.315501 102*2034.634812 
102*2034.634812 102*2033.954123 
102*2033.954123 102*2033.273434 
102*2033.273434 102*2032.592745 
102*2032.592745 102*2031.912056 
102*2031.912056 102*2031.231367 
102*2031.231367 102*2030.550678 
102*2030.550678 102*2029.869989 
102*2029.869989 102*2029.189300 
102*2029.189300 102*2028.508612 
102*2028.508612 102*2027.827923 
102*2027.827923 102*2027.147234 
102*2027.147234 102*2026.466545 
102*2026.466545 102*2025.785856 
102*2025.785856 102*2025.105167 
102*2025.105167 102*2024.424478 
102*2024.424478 102*2023.743789 
102*2023.743789 102*2023.063100 
102*2023.063100 102*2022.382411 
102*2022.382411 102*2021.701722 
102*2021.701722 102*2021.021033 
102*2021.021033 102*2020.340344 
102*2020.340344 102*2019.659656 
102*2019.659656 102*2018.978967 
102*2018.978967 102*2018.298278 
102*2018.298278 102*2017.617589 
102*2017.617589 102*2016.936900 
102*2016.936900 102*2016.256211 
102*2016.256211 102*2015.575522 
102*2015.575522 102*2014.894833 
102*2014.894833 102*2014.214144 
102*2014.214144 102*2013.533455 
102*2013.533455 102*2012.852766 
102*2012.852766 102*2012.172077 
102*2012.172077 102*2011.491388 
102*2011.491388 102*2010.810700 
102*2010.810700 102*2010.130011 
102*2010.130011 102*2009.449322 
102*2009.449322 102*2008.768633 
102*2008.768633 102*2008.087944 
102*2008.087944 102*2007.407255 
102*2007.407255 102*2006.726566 
102*2006.726566 102*2006.045877 
102*2006.045877 102*2005.365188 
102*2005.365188 102*2004.684499 
102*2004.684499 102*2004.003810 
102*2004.003810 102*2003.323121 
102*2040.538256 102*2039.857567 
102*2039.857567 102*2039.176879 
102*2039.176879 102*2038.496190 
102*2038.496190 102*2037.815501 
102*2037.815501 102*2037.134812 
102*2037.134812 102*2036.454123 
102*2036.454123 102*2035.773434 
102*2035.773434 102*2035.092745 
102*2035.092745 102*2034.412056 
102*2034.412056 102*2033.731367 
102*2033.731367 102*2033.050678 
102*2033.050678 102*2032.369989 
102*2032.369989 102*2031.689300 
102*2031.689300 102*2031.008612 
102*2031.008612 102*2030.327923 
102*2030.327923 102*2029.647234 
102*2029.647234 102*2028.966545 
102*2028.966545 102*2028.285856 
102*2028.285856 102*2027.605167 
102*2027.605167 102*2026.924478 
102*2026.924478 102*2026.243789 
102*2026.243789 102*2025.563100 
102*2025.563100 102*2024.882411 
102*2024.882411 102*2024.201722 
102*2024.201722 102*2023.521033 
102*2023.521033 102*2022.840344 
102*2022.840344 102*2022.159656 
102*2022.159656 102*2021.478967 
102*2021.478967 102*2020.798278 
102*2020.798278 102*2020.117589 
102*2020.117589 102*2019.436900 
102*2019.436900 102*2018.756211 
102*2018.756211 102*2018.075522 
102*2018.075522 102*2017.394833 
102*2017.394833 102*2016.714144 
102*2016.714144 102*2016.033455 
102*2016.033455 102*2015.352766 
102*2015.352766 102*2014.672077 
102*2014.672077 102*2013.991388 
102*2013.991388 102*2013.310700 
102*2013.310700 102*2012.630011 