ZCORN
102*2019.425863 102*2018.692811 
102*2018.692811 102*2017.959760 
102*2017.959760 102*2017.226708 
102*2017.226708 102*2016.493657 
102*2016.493657 102*2015.760605 
102*2015.760605 102*2015.027554 
102*2015.027554 102*2014.294503 
102*2014.294503 102*2013.561451 
102*2013.561451 102*2012.828400 
102*2012.828400 102*2012.095348 
102*2012.095348 102*2011.362297 
102*2011.362297 102*2010.629246 
102*2010.629246 102*2009.896194 
102*2009.896194 102*2009.163143 
102*2009.163143 102*2008.430091 
102*2008.430091 102*2007.697040 
102*2007.697040 102*2006.963988 
102*2006.963988 102*2006.230937 
102*2006.230937 102*2005.497886 
102*2005.497886 102*2004.764834 
102*2004.764834 102*2004.031783 
102*2004.031783 102*2003.298731 
102*2003.298731 102*2002.565680 
102*2002.565680 102*2001.832629 
102*2001.832629 102*2001.099577 
102*2001.099577 102*2000.366526 
102*2000.366526 102*1999.633474 
102*1999.633474 102*1998.900423 
102*1998.900423 102*1998.167371 
102*1998.167371 102*1997.434320 
102*1997.434320 102*1996.701269 
102*1996.701269 102*1995.968217 
102*1995.968217 102*1995.235166 
102*1995.235166 102*1994.502114 
102*1994.502114 102*1993.769063 
102*1993.769063 102*1993.036012 
102*1993.036012 102*1992.302960 
102*1992.302960 102*1991.569909 
102*1991.569909 102*1990.836857 
102*1990.836857 102*1990.103806 
102*1990.103806 102*1989.370754 
102*1989.370754 102*1988.637703 
102*1988.637703 102*1987.904652 
102*1987.904652 102*1987.171600 
102*1987.171600 102*1986.438549 
102*1986.438549 102*1985.705497 
102*1985.705497 102*1984.972446 
102*1984.972446 102*1984.239395 
102*1984.239395 102*1983.506343 
102*1983.506343 102*1982.773292 
102*1982.773292 102*1982.040240 
102*2021.925863 102*2021.192811 
102*2021.192811 102*2020.459760 
102*2020.459760 102*2019.726708 
102*2019.726708 102*2018.993657 
102*2018.993657 102*2018.260605 
102*2018.260605 102*2017.527554 
102*2017.527554 102*2016.794503 
102*2016.794503 102*2016.061451 
102*2016.061451 102*2015.328400 
102*2015.328400 102*2014.595348 
102*2014.595348 102*2013.862297 
102*2013.862297 102*2013.129246 
102*2013.129246 102*2012.396194 
102*2012.396194 102*2011.663143 
102*2011.663143 102*2010.930091 
102*2010.930091 102*2010.197040 
102*2010.197040 102*2009.463988 
102*2009.463988 102*2008.730937 
102*2008.730937 102*2007.997886 
102*2007.997886 102*2007.264834 
102*2007.264834 102*2006.531783 
102*2006.531783 102*2005.798731 
102*2005.798731 102*2005.065680 
102*2005.065680 102*2004.332629 
102*2004.332629 102*2003.599577 
102*2003.599577 102*2002.866526 
102*2002.866526 102*2002.133474 
102*2002.133474 102*2001.400423 
102*2001.400423 102*2000.667371 
102*2000.667371 102*1999.934320 
102*1999.934320 102*1999.201269 
102*1999.201269 102*1998.468217 
102*1998.468217 102*1997.735166 
102*1997.735166 102*1997.002114 
102*1997.002114 102*1996.269063 
102*1996.269063 102*1995.536012 
102*1995.536012 102*1994.802960 
102*1994.802960 102*1994.069909 
102*1994.069909 102*1993.336857 
102*1993.336857 102*1992.603806 
102*1992.603806 102*1991.870754 
102*1991.870754 102*1991.137703 
102*1991.137703 102*1990.404652 
102*1990.404652 102*1989.671600 
102*1989.671600 102*1988.938549 
102*1988.938549 102*1988.205497 
102*1988.205497 102*1987.472446 
102*1987.472446 102*1986.739395 
102*1986.739395 102*1986.006343 
102*1986.006343 102*1985.273292 
102*1985.273292 102*1984.540240 
102*2021.925863 102*2021.192811 
102*2021.192811 102*2020.459760 
102*2020.459760 102*2019.726708 
102*2019.726708 102*2018.993657 
102*2018.993657 102*2018.260605 
102*2018.260605 102*2017.527554 
102*2017.527554 102*2016.794503 
102*2016.794503 102*2016.061451 
102*2016.061451 102*2015.328400 
102*2015.328400 102*2014.595348 
102*2014.595348 102*2013.862297 
102*2013.862297 102*2013.129246 
102*2013.129246 102*2012.396194 
102*2012.396194 102*2011.663143 
102*2011.663143 102*2010.930091 
102*2010.930091 102*2010.197040 
102*2010.197040 102*2009.463988 
102*2009.463988 102*2008.730937 
102*2008.730937 102*2007.997886 
102*2007.997886 102*2007.264834 
102*2007.264834 102*2006.531783 
102*2006.531783 102*2005.798731 
102*2005.798731 102*2005.065680 
102*2005.065680 102*2004.332629 
102*2004.332629 102*2003.599577 
102*2003.599577 102*2002.866526 
102*2002.866526 102*2002.133474 
102*2002.133474 102*2001.400423 
102*2001.400423 102*2000.667371 
102*2000.667371 102*1999.934320 
102*1999.934320 102*1999.201269 
102*1999.201269 102*1998.468217 
102*1998.468217 102*1997.735166 
102*1997.735166 102*1997.002114 
102*1997.002114 102*1996.269063 
102*1996.269063 102*1995.536012 
102*1995.536012 102*1994.802960 
102*1994.802960 102*1994.069909 
102*1994.069909 102*1993.336857 
102*1993.336857 102*1992.603806 
102*1992.603806 102*1991.870754 
102*1991.870754 102*1991.137703 
102*1991.137703 102*1990.404652 
102*1990.404652 102*1989.671600 
102*1989.671600 102*1988.938549 
102*1988.938549 102*1988.205497 
102*1988.205497 102*1987.472446 
102*1987.472446 102*1986.739395 
102*1986.739395 102*1986.006343 
102*1986.006343 102*1985.273292 
102*1985.273292 102*1984.540240 
102*2024.425863 102*2023.692811 
102*2023.692811 102*2022.959760 
102*2022.959760 102*2022.226708 
102*2022.226708 102*2021.493657 
102*2021.493657 102*2020.760605 
102*2020.760605 102*2020.027554 
102*2020.027554 102*2019.294503 
102*2019.294503 102*2018.561451 
102*2018.561451 102*2017.828400 
102*2017.828400 102*2017.095348 
102*2017.095348 102*2016.362297 
102*2016.362297 102*2015.629246 
102*2015.629246 102*2014.896194 
102*2014.896194 102*2014.163143 
102*2014.163143 102*2013.430091 
102*2013.430091 102*2012.697040 
102*2012.697040 102*2011.963988 
102*2011.963988 102*2011.230937 
102*2011.230937 102*2010.497886 
102*2010.497886 102*2009.764834 
102*2009.764834 102*2009.031783 
102*2009.031783 102*2008.298731 
102*2008.298731 102*2007.565680 
102*2007.565680 102*2006.832629 
102*2006.832629 102*2006.099577 
102*2006.099577 102*2005.366526 
102*2005.366526 102*2004.633474 
102*2004.633474 102*2003.900423 
102*2003.900423 102*2003.167371 
102*2003.167371 102*2002.434320 
102*2002.434320 102*2001.701269 
102*2001.701269 102*2000.968217 
102*2000.968217 102*2000.235166 
102*2000.235166 102*1999.502114 
102*1999.502114 102*1998.769063 
102*1998.769063 102*1998.036012 
102*1998.036012 102*1997.302960 
102*1997.302960 102*1996.569909 
102*1996.569909 102*1995.836857 
102*1995.836857 102*1995.103806 
102*1995.103806 102*1994.370754 
102*1994.370754 102*1993.637703 
102*1993.637703 102*1992.904652 
102*1992.904652 102*1992.171600 
102*1992.171600 102*1991.438549 
102*1991.438549 102*1990.705497 
102*1990.705497 102*1989.972446 
102*1989.972446 102*1989.239395 
102*1989.239395 102*1988.506343 
102*1988.506343 102*1987.773292 
102*1987.773292 102*1987.040240 
102*2024.425863 102*2023.692811 
102*2023.692811 102*2022.959760 
102*2022.959760 102*2022.226708 
102*2022.226708 102*2021.493657 
102*2021.493657 102*2020.760605 
102*2020.760605 102*2020.027554 
102*2020.027554 102*2019.294503 
102*2019.294503 102*2018.561451 
102*2018.561451 102*2017.828400 
102*2017.828400 102*2017.095348 
102*2017.095348 102*2016.362297 
102*2016.362297 102*2015.629246 
102*2015.629246 102*2014.896194 
102*2014.896194 102*2014.163143 
102*2014.163143 102*2013.430091 
102*2013.430091 102*2012.697040 
102*2012.697040 102*2011.963988 
102*2011.963988 102*2011.230937 
102*2011.230937 102*2010.497886 
102*2010.497886 102*2009.764834 
102*2009.764834 102*2009.031783 
102*2009.031783 102*2008.298731 
102*2008.298731 102*2007.565680 
102*2007.565680 102*2006.832629 
102*2006.832629 102*2006.099577 
102*2006.099577 102*2005.366526 
102*2005.366526 102*2004.633474 
102*2004.633474 102*2003.900423 
102*2003.900423 102*2003.167371 
102*2003.167371 102*2002.434320 
102*2002.434320 102*2001.701269 
102*2001.701269 102*2000.968217 
102*2000.968217 102*2000.235166 
102*2000.235166 102*1999.502114 
102*1999.502114 102*1998.769063 
102*1998.769063 102*1998.036012 
102*1998.036012 102*1997.302960 
102*1997.302960 102*1996.569909 
102*1996.569909 102*1995.836857 
102*1995.836857 102*1995.103806 
102*1995.103806 102*1994.370754 
102*1994.370754 102*1993.637703 
102*1993.637703 102*1992.904652 
102*1992.904652 102*1992.171600 
102*1992.171600 102*1991.438549 
102*1991.438549 102*1990.705497 
102*1990.705497 102*1989.972446 
102*1989.972446 102*1989.239395 
102*1989.239395 102*1988.506343 
102*1988.506343 102*1987.773292 
102*1987.773292 102*1987.040240 
102*2026.925863 102*2026.192811 
102*2026.192811 102*2025.459760 
102*2025.459760 102*2024.726708 
102*2024.726708 102*2023.993657 
102*2023.993657 102*2023.260605 
102*2023.260605 102*2022.527554 
102*2022.527554 102*2021.794503 
102*2021.794503 102*2021.061451 
102*2021.061451 102*2020.328400 
102*2020.328400 102*2019.595348 
102*2019.595348 102*2018.862297 
102*2018.862297 102*2018.129246 
102*2018.129246 102*2017.396194 
102*2017.396194 102*2016.663143 
102*2016.663143 102*2015.930091 
102*2015.930091 102*2015.197040 
102*2015.197040 102*2014.463988 
102*2014.463988 102*2013.730937 
102*2013.730937 102*2012.997886 
102*2012.997886 102*2012.264834 
102*2012.264834 102*2011.531783 
102*2011.531783 102*2010.798731 
102*2010.798731 102*2010.065680 
102*2010.065680 102*2009.332629 
102*2009.332629 102*2008.599577 
102*2008.599577 102*2007.866526 
102*2007.866526 102*2007.133474 
102*2007.133474 102*2006.400423 
102*2006.400423 102*2005.667371 
102*2005.667371 102*2004.934320 
102*2004.934320 102*2004.201269 
102*2004.201269 102*2003.468217 
102*2003.468217 102*2002.735166 
102*2002.735166 102*2002.002114 
102*2002.002114 102*2001.269063 
102*2001.269063 102*2000.536012 
102*2000.536012 102*1999.802960 
102*1999.802960 102*1999.069909 
102*1999.069909 102*1998.336857 
102*1998.336857 102*1997.603806 
102*1997.603806 102*1996.870754 
102*1996.870754 102*1996.137703 
102*1996.137703 102*1995.404652 
102*1995.404652 102*1994.671600 
102*1994.671600 102*1993.938549 
102*1993.938549 102*1993.205497 
102*1993.205497 102*1992.472446 
102*1992.472446 102*1991.739395 
102*1991.739395 102*1991.006343 
102*1991.006343 102*1990.273292 
102*1990.273292 102*1989.540240 
102*2026.925863 102*2026.192811 
102*2026.192811 102*2025.459760 
102*2025.459760 102*2024.726708 
102*2024.726708 102*2023.993657 
102*2023.993657 102*2023.260605 
102*2023.260605 102*2022.527554 
102*2022.527554 102*2021.794503 
102*2021.794503 102*2021.061451 
102*2021.061451 102*2020.328400 
102*2020.328400 102*2019.595348 
102*2019.595348 102*2018.862297 
102*2018.862297 102*2018.129246 
102*2018.129246 102*2017.396194 
102*2017.396194 102*2016.663143 
102*2016.663143 102*2015.930091 
102*2015.930091 102*2015.197040 
102*2015.197040 102*2014.463988 
102*2014.463988 102*2013.730937 
102*2013.730937 102*2012.997886 
102*2012.997886 102*2012.264834 
102*2012.264834 102*2011.531783 
102*2011.531783 102*2010.798731 
102*2010.798731 102*2010.065680 
102*2010.065680 102*2009.332629 
102*2009.332629 102*2008.599577 
102*2008.599577 102*2007.866526 
102*2007.866526 102*2007.133474 
102*2007.133474 102*2006.400423 
102*2006.400423 102*2005.667371 
102*2005.667371 102*2004.934320 
102*2004.934320 102*2004.201269 
102*2004.201269 102*2003.468217 
102*2003.468217 102*2002.735166 
102*2002.735166 102*2002.002114 
102*2002.002114 102*2001.269063 
102*2001.269063 102*2000.536012 
102*2000.536012 102*1999.802960 
102*1999.802960 102*1999.069909 
102*1999.069909 102*1998.336857 
102*1998.336857 102*1997.603806 
102*1997.603806 102*1996.870754 
102*1996.870754 102*1996.137703 
102*1996.137703 102*1995.404652 
102*1995.404652 102*1994.671600 
102*1994.671600 102*1993.938549 
102*1993.938549 102*1993.205497 
102*1993.205497 102*1992.472446 
102*1992.472446 102*1991.739395 
102*1991.739395 102*1991.006343 
102*1991.006343 102*1990.273292 
102*1990.273292 102*1989.540240 
102*2029.425863 102*2028.692811 
102*2028.692811 102*2027.959760 
102*2027.959760 102*2027.226708 
102*2027.226708 102*2026.493657 
102*2026.493657 102*2025.760605 
102*2025.760605 102*2025.027554 
102*2025.027554 102*2024.294503 
102*2024.294503 102*2023.561451 
102*2023.561451 102*2022.828400 
102*2022.828400 102*2022.095348 
102*2022.095348 102*2021.362297 
102*2021.362297 102*2020.629246 
102*2020.629246 102*2019.896194 
102*2019.896194 102*2019.163143 
102*2019.163143 102*2018.430091 
102*2018.430091 102*2017.697040 
102*2017.697040 102*2016.963988 
102*2016.963988 102*2016.230937 
102*2016.230937 102*2015.497886 
102*2015.497886 102*2014.764834 
102*2014.764834 102*2014.031783 
102*2014.031783 102*2013.298731 
102*2013.298731 102*2012.565680 
102*2012.565680 102*2011.832629 
102*2011.832629 102*2011.099577 
102*2011.099577 102*2010.366526 
102*2010.366526 102*2009.633474 
102*2009.633474 102*2008.900423 
102*2008.900423 102*2008.167371 
102*2008.167371 102*2007.434320 
102*2007.434320 102*2006.701269 
102*2006.701269 102*2005.968217 
102*2005.968217 102*2005.235166 
102*2005.235166 102*2004.502114 
102*2004.502114 102*2003.769063 
102*2003.769063 102*2003.036012 
102*2003.036012 102*2002.302960 
102*2002.302960 102*2001.569909 
102*2001.569909 102*2000.836857 
102*2000.836857 102*2000.103806 
102*2000.103806 102*1999.370754 
102*1999.370754 102*1998.637703 
102*1998.637703 102*1997.904652 
102*1997.904652 102*1997.171600 
102*1997.171600 102*1996.438549 
102*1996.438549 102*1995.705497 
102*1995.705497 102*1994.972446 
102*1994.972446 102*1994.239395 
102*1994.239395 102*1993.506343 
102*1993.506343 102*1992.773292 
102*1992.773292 102*1992.040240 
102*2029.425863 102*2028.692811 
102*2028.692811 102*2027.959760 
102*2027.959760 102*2027.226708 
102*2027.226708 102*2026.493657 
102*2026.493657 102*2025.760605 
102*2025.760605 102*2025.027554 
102*2025.027554 102*2024.294503 
102*2024.294503 102*2023.561451 
102*2023.561451 102*2022.828400 
102*2022.828400 102*2022.095348 
102*2022.095348 102*2021.362297 
102*2021.362297 102*2020.629246 
102*2020.629246 102*2019.896194 
102*2019.896194 102*2019.163143 
102*2019.163143 102*2018.430091 
102*2018.430091 102*2017.697040 
102*2017.697040 102*2016.963988 
102*2016.963988 102*2016.230937 
102*2016.230937 102*2015.497886 
102*2015.497886 102*2014.764834 
102*2014.764834 102*2014.031783 
102*2014.031783 102*2013.298731 
102*2013.298731 102*2012.565680 
102*2012.565680 102*2011.832629 
102*2011.832629 102*2011.099577 
102*2011.099577 102*2010.366526 
102*2010.366526 102*2009.633474 
102*2009.633474 102*2008.900423 
102*2008.900423 102*2008.167371 
102*2008.167371 102*2007.434320 
102*2007.434320 102*2006.701269 
102*2006.701269 102*2005.968217 
102*2005.968217 102*2005.235166 
102*2005.235166 102*2004.502114 
102*2004.502114 102*2003.769063 
102*2003.769063 102*2003.036012 
102*2003.036012 102*2002.302960 
102*2002.302960 102*2001.569909 
102*2001.569909 102*2000.836857 
102*2000.836857 102*2000.103806 
102*2000.103806 102*1999.370754 
102*1999.370754 102*1998.637703 
102*1998.637703 102*1997.904652 
102*1997.904652 102*1997.171600 
102*1997.171600 102*1996.438549 
102*1996.438549 102*1995.705497 
102*1995.705497 102*1994.972446 
102*1994.972446 102*1994.239395 
102*1994.239395 102*1993.506343 
102*1993.506343 102*1992.773292 
102*1992.773292 102*1992.040240 
102*2031.925863 102*2031.192811 
102*2031.192811 102*2030.459760 
102*2030.459760 102*2029.726708 
102*2029.726708 102*2028.993657 
102*2028.993657 102*2028.260605 
102*2028.260605 102*2027.527554 
102*2027.527554 102*2026.794503 
102*2026.794503 102*2026.061451 
102*2026.061451 102*2025.328400 
102*2025.328400 102*2024.595348 
102*2024.595348 102*2023.862297 
102*2023.862297 102*2023.129246 
102*2023.129246 102*2022.396194 
102*2022.396194 102*2021.663143 
102*2021.663143 102*2020.930091 
102*2020.930091 102*2020.197040 
102*2020.197040 102*2019.463988 
102*2019.463988 102*2018.730937 
102*2018.730937 102*2017.997886 
102*2017.997886 102*2017.264834 
102*2017.264834 102*2016.531783 
102*2016.531783 102*2015.798731 
102*2015.798731 102*2015.065680 
102*2015.065680 102*2014.332629 
102*2014.332629 102*2013.599577 
102*2013.599577 102*2012.866526 
102*2012.866526 102*2012.133474 
102*2012.133474 102*2011.400423 
102*2011.400423 102*2010.667371 
102*2010.667371 102*2009.934320 
102*2009.934320 102*2009.201269 
102*2009.201269 102*2008.468217 
102*2008.468217 102*2007.735166 
102*2007.735166 102*2007.002114 
102*2007.002114 102*2006.269063 
102*2006.269063 102*2005.536012 
102*2005.536012 102*2004.802960 
102*2004.802960 102*2004.069909 
102*2004.069909 102*2003.336857 
102*2003.336857 102*2002.603806 
102*2002.603806 102*2001.870754 
102*2001.870754 102*2001.137703 
102*2001.137703 102*2000.404652 
102*2000.404652 102*1999.671600 
102*1999.671600 102*1998.938549 
102*1998.938549 102*1998.205497 
102*1998.205497 102*1997.472446 
102*1997.472446 102*1996.739395 
102*1996.739395 102*1996.006343 
102*1996.006343 102*1995.273292 
102*1995.273292 102*1994.540240 
102*2031.925863 102*2031.192811 
102*2031.192811 102*2030.459760 
102*2030.459760 102*2029.726708 
102*2029.726708 102*2028.993657 
102*2028.993657 102*2028.260605 
102*2028.260605 102*2027.527554 
102*2027.527554 102*2026.794503 
102*2026.794503 102*2026.061451 
102*2026.061451 102*2025.328400 
102*2025.328400 102*2024.595348 
102*2024.595348 102*2023.862297 
102*2023.862297 102*2023.129246 
102*2023.129246 102*2022.396194 
102*2022.396194 102*2021.663143 
102*2021.663143 102*2020.930091 
102*2020.930091 102*2020.197040 
102*2020.197040 102*2019.463988 
102*2019.463988 102*2018.730937 
102*2018.730937 102*2017.997886 
102*2017.997886 102*2017.264834 
102*2017.264834 102*2016.531783 
102*2016.531783 102*2015.798731 
102*2015.798731 102*2015.065680 
102*2015.065680 102*2014.332629 
102*2014.332629 102*2013.599577 
102*2013.599577 102*2012.866526 
102*2012.866526 102*2012.133474 
102*2012.133474 102*2011.400423 
102*2011.400423 102*2010.667371 
102*2010.667371 102*2009.934320 
102*2009.934320 102*2009.201269 
102*2009.201269 102*2008.468217 
102*2008.468217 102*2007.735166 
102*2007.735166 102*2007.002114 
102*2007.002114 102*2006.269063 
102*2006.269063 102*2005.536012 
102*2005.536012 102*2004.802960 
102*2004.802960 102*2004.069909 
102*2004.069909 102*2003.336857 
102*2003.336857 102*2002.603806 
102*2002.603806 102*2001.870754 
102*2001.870754 102*2001.137703 
102*2001.137703 102*2000.404652 
102*2000.404652 102*1999.671600 
102*1999.671600 102*1998.938549 
102*1998.938549 102*1998.205497 
102*1998.205497 102*1997.472446 
102*1997.472446 102*1996.739395 
102*1996.739395 102*1996.006343 
102*1996.006343 102*1995.273292 
102*1995.273292 102*1994.540240 
102*2034.425863 102*2033.692811 
102*2033.692811 102*2032.959760 
102*2032.959760 102*2032.226708 
102*2032.226708 102*2031.493657 
102*2031.493657 102*2030.760605 
102*2030.760605 102*2030.027554 
102*2030.027554 102*2029.294503 
102*2029.294503 102*2028.561451 
102*2028.561451 102*2027.828400 
102*2027.828400 102*2027.095348 
102*2027.095348 102*2026.362297 
102*2026.362297 102*2025.629246 
102*2025.629246 102*2024.896194 
102*2024.896194 102*2024.163143 
102*2024.163143 102*2023.430091 
102*2023.430091 102*2022.697040 
102*2022.697040 102*2021.963988 
102*2021.963988 102*2021.230937 
102*2021.230937 102*2020.497886 
102*2020.497886 102*2019.764834 
102*2019.764834 102*2019.031783 
102*2019.031783 102*2018.298731 
102*2018.298731 102*2017.565680 
102*2017.565680 102*2016.832629 
102*2016.832629 102*2016.099577 
102*2016.099577 102*2015.366526 
102*2015.366526 102*2014.633474 
102*2014.633474 102*2013.900423 
102*2013.900423 102*2013.167371 
102*2013.167371 102*2012.434320 
102*2012.434320 102*2011.701269 
102*2011.701269 102*2010.968217 
102*2010.968217 102*2010.235166 
102*2010.235166 102*2009.502114 
102*2009.502114 102*2008.769063 
102*2008.769063 102*2008.036012 
102*2008.036012 102*2007.302960 
102*2007.302960 102*2006.569909 
102*2006.569909 102*2005.836857 
102*2005.836857 102*2005.103806 
102*2005.103806 102*2004.370754 
102*2004.370754 102*2003.637703 
102*2003.637703 102*2002.904652 
102*2002.904652 102*2002.171600 
102*2002.171600 102*2001.438549 
102*2001.438549 102*2000.705497 
102*2000.705497 102*1999.972446 
102*1999.972446 102*1999.239395 
102*1999.239395 102*1998.506343 
102*1998.506343 102*1997.773292 
102*1997.773292 102*1997.040240 
102*2034.425863 102*2033.692811 
102*2033.692811 102*2032.959760 
102*2032.959760 102*2032.226708 
102*2032.226708 102*2031.493657 
102*2031.493657 102*2030.760605 
102*2030.760605 102*2030.027554 
102*2030.027554 102*2029.294503 
102*2029.294503 102*2028.561451 
102*2028.561451 102*2027.828400 
102*2027.828400 102*2027.095348 
102*2027.095348 102*2026.362297 
102*2026.362297 102*2025.629246 
102*2025.629246 102*2024.896194 
102*2024.896194 102*2024.163143 
102*2024.163143 102*2023.430091 
102*2023.430091 102*2022.697040 
102*2022.697040 102*2021.963988 
102*2021.963988 102*2021.230937 
102*2021.230937 102*2020.497886 
102*2020.497886 102*2019.764834 
102*2019.764834 102*2019.031783 
102*2019.031783 102*2018.298731 
102*2018.298731 102*2017.565680 
102*2017.565680 102*2016.832629 
102*2016.832629 102*2016.099577 
102*2016.099577 102*2015.366526 
102*2015.366526 102*2014.633474 
102*2014.633474 102*2013.900423 
102*2013.900423 102*2013.167371 
102*2013.167371 102*2012.434320 
102*2012.434320 102*2011.701269 
102*2011.701269 102*2010.968217 
102*2010.968217 102*2010.235166 
102*2010.235166 102*2009.502114 
102*2009.502114 102*2008.769063 
102*2008.769063 102*2008.036012 
102*2008.036012 102*2007.302960 
102*2007.302960 102*2006.569909 
102*2006.569909 102*2005.836857 
102*2005.836857 102*2005.103806 
102*2005.103806 102*2004.370754 
102*2004.370754 102*2003.637703 
102*2003.637703 102*2002.904652 
102*2002.904652 102*2002.171600 
102*2002.171600 102*2001.438549 
102*2001.438549 102*2000.705497 
102*2000.705497 102*1999.972446 
102*1999.972446 102*1999.239395 
102*1999.239395 102*1998.506343 
102*1998.506343 102*1997.773292 
102*1997.773292 102*1997.040240 
102*2036.925863 102*2036.192811 
102*2036.192811 102*2035.459760 
102*2035.459760 102*2034.726708 
102*2034.726708 102*2033.993657 
102*2033.993657 102*2033.260605 
102*2033.260605 102*2032.527554 
102*2032.527554 102*2031.794503 
102*2031.794503 102*2031.061451 
102*2031.061451 102*2030.328400 
102*2030.328400 102*2029.595348 
102*2029.595348 102*2028.862297 
102*2028.862297 102*2028.129246 
102*2028.129246 102*2027.396194 
102*2027.396194 102*2026.663143 
102*2026.663143 102*2025.930091 
102*2025.930091 102*2025.197040 
102*2025.197040 102*2024.463988 
102*2024.463988 102*2023.730937 
102*2023.730937 102*2022.997886 
102*2022.997886 102*2022.264834 
102*2022.264834 102*2021.531783 
102*2021.531783 102*2020.798731 
102*2020.798731 102*2020.065680 
102*2020.065680 102*2019.332629 
102*2019.332629 102*2018.599577 
102*2018.599577 102*2017.866526 
102*2017.866526 102*2017.133474 
102*2017.133474 102*2016.400423 
102*2016.400423 102*2015.667371 
102*2015.667371 102*2014.934320 
102*2014.934320 102*2014.201269 
102*2014.201269 102*2013.468217 
102*2013.468217 102*2012.735166 
102*2012.735166 102*2012.002114 
102*2012.002114 102*2011.269063 
102*2011.269063 102*2010.536012 
102*2010.536012 102*2009.802960 
102*2009.802960 102*2009.069909 
102*2009.069909 102*2008.336857 
102*2008.336857 102*2007.603806 
102*2007.603806 102*2006.870754 
102*2006.870754 102*2006.137703 
102*2006.137703 102*2005.404652 
102*2005.404652 102*2004.671600 
102*2004.671600 102*2003.938549 
102*2003.938549 102*2003.205497 
102*2003.205497 102*2002.472446 
102*2002.472446 102*2001.739395 
102*2001.739395 102*2001.006343 
102*2001.006343 102*2000.273292 
102*2000.273292 102*1999.540240 
102*2036.925863 102*2036.192811 
102*2036.192811 102*2035.459760 
102*2035.459760 102*2034.726708 
102*2034.726708 102*2033.993657 
102*2033.993657 102*2033.260605 
102*2033.260605 102*2032.527554 
102*2032.527554 102*2031.794503 
102*2031.794503 102*2031.061451 
102*2031.061451 102*2030.328400 
102*2030.328400 102*2029.595348 
102*2029.595348 102*2028.862297 
102*2028.862297 102*2028.129246 
102*2028.129246 102*2027.396194 
102*2027.396194 102*2026.663143 
102*2026.663143 102*2025.930091 
102*2025.930091 102*2025.197040 
102*2025.197040 102*2024.463988 
102*2024.463988 102*2023.730937 
102*2023.730937 102*2022.997886 
102*2022.997886 102*2022.264834 
102*2022.264834 102*2021.531783 
102*2021.531783 102*2020.798731 
102*2020.798731 102*2020.065680 
102*2020.065680 102*2019.332629 
102*2019.332629 102*2018.599577 
102*2018.599577 102*2017.866526 
102*2017.866526 102*2017.133474 
102*2017.133474 102*2016.400423 
102*2016.400423 102*2015.667371 
102*2015.667371 102*2014.934320 
102*2014.934320 102*2014.201269 
102*2014.201269 102*2013.468217 
102*2013.468217 102*2012.735166 
102*2012.735166 102*2012.002114 
102*2012.002114 102*2011.269063 
102*2011.269063 102*2010.536012 
102*2010.536012 102*2009.802960 
102*2009.802960 102*2009.069909 
102*2009.069909 102*2008.336857 
102*2008.336857 102*2007.603806 
102*2007.603806 102*2006.870754 
102*2006.870754 102*2006.137703 
102*2006.137703 102*2005.404652 
102*2005.404652 102*2004.671600 
102*2004.671600 102*2003.938549 
102*2003.938549 102*2003.205497 
102*2003.205497 102*2002.472446 
102*2002.472446 102*2001.739395 
102*2001.739395 102*2001.006343 
102*2001.006343 102*2000.273292 
102*2000.273292 102*1999.540240 
102*2039.425863 102*2038.692811 
102*2038.692811 102*2037.959760 
102*2037.959760 102*2037.226708 
102*2037.226708 102*2036.493657 
102*2036.493657 102*2035.760605 
102*2035.760605 102*2035.027554 
102*2035.027554 102*2034.294503 
102*2034.294503 102*2033.561451 
102*2033.561451 102*2032.828400 
102*2032.828400 102*2032.095348 
102*2032.095348 102*2031.362297 
102*2031.362297 102*2030.629246 
102*2030.629246 102*2029.896194 
102*2029.896194 102*2029.163143 
102*2029.163143 102*2028.430091 
102*2028.430091 102*2027.697040 
102*2027.697040 102*2026.963988 
102*2026.963988 102*2026.230937 
102*2026.230937 102*2025.497886 
102*2025.497886 102*2024.764834 
102*2024.764834 102*2024.031783 
102*2024.031783 102*2023.298731 
102*2023.298731 102*2022.565680 
102*2022.565680 102*2021.832629 
102*2021.832629 102*2021.099577 
102*2021.099577 102*2020.366526 
102*2020.366526 102*2019.633474 
102*2019.633474 102*2018.900423 
102*2018.900423 102*2018.167371 
102*2018.167371 102*2017.434320 
102*2017.434320 102*2016.701269 
102*2016.701269 102*2015.968217 
102*2015.968217 102*2015.235166 
102*2015.235166 102*2014.502114 
102*2014.502114 102*2013.769063 
102*2013.769063 102*2013.036012 
102*2013.036012 102*2012.302960 
102*2012.302960 102*2011.569909 
102*2011.569909 102*2010.836857 
102*2010.836857 102*2010.103806 
102*2010.103806 102*2009.370754 
102*2009.370754 102*2008.637703 
102*2008.637703 102*2007.904652 
102*2007.904652 102*2007.171600 
102*2007.171600 102*2006.438549 
102*2006.438549 102*2005.705497 
102*2005.705497 102*2004.972446 
102*2004.972446 102*2004.239395 
102*2004.239395 102*2003.506343 
102*2003.506343 102*2002.773292 
102*2002.773292 102*2002.040240 
102*2039.425863 102*2038.692811 
102*2038.692811 102*2037.959760 
102*2037.959760 102*2037.226708 
102*2037.226708 102*2036.493657 
102*2036.493657 102*2035.760605 
102*2035.760605 102*2035.027554 
102*2035.027554 102*2034.294503 
102*2034.294503 102*2033.561451 
102*2033.561451 102*2032.828400 
102*2032.828400 102*2032.095348 
102*2032.095348 102*2031.362297 
102*2031.362297 102*2030.629246 
102*2030.629246 102*2029.896194 
102*2029.896194 102*2029.163143 
102*2029.163143 102*2028.430091 
102*2028.430091 102*2027.697040 
102*2027.697040 102*2026.963988 
102*2026.963988 102*2026.230937 
102*2026.230937 102*2025.497886 
102*2025.497886 102*2024.764834 
102*2024.764834 102*2024.031783 
102*2024.031783 102*2023.298731 
102*2023.298731 102*2022.565680 
102*2022.565680 102*2021.832629 
102*2021.832629 102*2021.099577 
102*2021.099577 102*2020.366526 
102*2020.366526 102*2019.633474 
102*2019.633474 102*2018.900423 
102*2018.900423 102*2018.167371 
102*2018.167371 102*2017.434320 
102*2017.434320 102*2016.701269 
102*2016.701269 102*2015.968217 
102*2015.968217 102*2015.235166 
102*2015.235166 102*2014.502114 
102*2014.502114 102*2013.769063 
102*2013.769063 102*2013.036012 
102*2013.036012 102*2012.302960 
102*2012.302960 102*2011.569909 
102*2011.569909 102*2010.836857 
102*2010.836857 102*2010.103806 
102*2010.103806 102*2009.370754 
102*2009.370754 102*2008.637703 
102*2008.637703 102*2007.904652 
102*2007.904652 102*2007.171600 
102*2007.171600 102*2006.438549 
102*2006.438549 102*2005.705497 
102*2005.705497 102*2004.972446 
102*2004.972446 102*2004.239395 
102*2004.239395 102*2003.506343 
102*2003.506343 102*2002.773292 
102*2002.773292 102*2002.040240 
102*2041.925863 102*2041.192811 
102*2041.192811 102*2040.459760 
102*2040.459760 102*2039.726708 
102*2039.726708 102*2038.993657 
102*2038.993657 102*2038.260605 
102*2038.260605 102*2037.527554 
102*2037.527554 102*2036.794503 
102*2036.794503 102*2036.061451 
102*2036.061451 102*2035.328400 
102*2035.328400 102*2034.595348 
102*2034.595348 102*2033.862297 
102*2033.862297 102*2033.129246 
102*2033.129246 102*2032.396194 
102*2032.396194 102*2031.663143 
102*2031.663143 102*2030.930091 
102*2030.930091 102*2030.197040 
102*2030.197040 102*2029.463988 
102*2029.463988 102*2028.730937 
102*2028.730937 102*2027.997886 
102*2027.997886 102*2027.264834 
102*2027.264834 102*2026.531783 
102*2026.531783 102*2025.798731 
102*2025.798731 102*2025.065680 
102*2025.065680 102*2024.332629 
102*2024.332629 102*2023.599577 
102*2023.599577 102*2022.866526 
102*2022.866526 102*2022.133474 
102*2022.133474 102*2021.400423 
102*2021.400423 102*2020.667371 
102*2020.667371 102*2019.934320 
102*2019.934320 102*2019.201269 
102*2019.201269 102*2018.468217 
102*2018.468217 102*2017.735166 
102*2017.735166 102*2017.002114 
102*2017.002114 102*2016.269063 
102*2016.269063 102*2015.536012 
102*2015.536012 102*2014.802960 
102*2014.802960 102*2014.069909 
102*2014.069909 102*2013.336857 
102*2013.336857 102*2012.603806 
102*2012.603806 102*2011.870754 