ZCORN
102*2008.787765 102*2008.456151 
102*2008.456151 102*2008.124537 
102*2008.124537 102*2007.792924 
102*2007.792924 102*2007.461310 
102*2007.461310 102*2007.129696 
102*2007.129696 102*2006.798082 
102*2006.798082 102*2006.466469 
102*2006.466469 102*2006.134855 
102*2006.134855 102*2005.803241 
102*2005.803241 102*2005.471627 
102*2005.471627 102*2005.140013 
102*2005.140013 102*2004.808400 
102*2004.808400 102*2004.476786 
102*2004.476786 102*2004.145172 
102*2004.145172 102*2003.813558 
102*2003.813558 102*2003.481945 
102*2003.481945 102*2003.150331 
102*2003.150331 102*2002.818717 
102*2002.818717 102*2002.487103 
102*2002.487103 102*2002.155490 
102*2002.155490 102*2001.823876 
102*2001.823876 102*2001.492262 
102*2001.492262 102*2001.160648 
102*2001.160648 102*2000.829034 
102*2000.829034 102*2000.497421 
102*2000.497421 102*2000.165807 
102*2000.165807 102*1999.834193 
102*1999.834193 102*1999.502579 
102*1999.502579 102*1999.170966 
102*1999.170966 102*1998.839352 
102*1998.839352 102*1998.507738 
102*1998.507738 102*1998.176124 
102*1998.176124 102*1997.844510 
102*1997.844510 102*1997.512897 
102*1997.512897 102*1997.181283 
102*1997.181283 102*1996.849669 
102*1996.849669 102*1996.518055 
102*1996.518055 102*1996.186442 
102*1996.186442 102*1995.854828 
102*1995.854828 102*1995.523214 
102*1995.523214 102*1995.191600 
102*1995.191600 102*1994.859987 
102*1994.859987 102*1994.528373 
102*1994.528373 102*1994.196759 
102*1994.196759 102*1993.865145 
102*1993.865145 102*1993.533531 
102*1993.533531 102*1993.201918 
102*1993.201918 102*1992.870304 
102*1992.870304 102*1992.538690 
102*1992.538690 102*1992.207076 
102*1992.207076 102*1991.875463 
102*2011.287765 102*2010.956151 
102*2010.956151 102*2010.624537 
102*2010.624537 102*2010.292924 
102*2010.292924 102*2009.961310 
102*2009.961310 102*2009.629696 
102*2009.629696 102*2009.298082 
102*2009.298082 102*2008.966469 
102*2008.966469 102*2008.634855 
102*2008.634855 102*2008.303241 
102*2008.303241 102*2007.971627 
102*2007.971627 102*2007.640013 
102*2007.640013 102*2007.308400 
102*2007.308400 102*2006.976786 
102*2006.976786 102*2006.645172 
102*2006.645172 102*2006.313558 
102*2006.313558 102*2005.981945 
102*2005.981945 102*2005.650331 
102*2005.650331 102*2005.318717 
102*2005.318717 102*2004.987103 
102*2004.987103 102*2004.655490 
102*2004.655490 102*2004.323876 
102*2004.323876 102*2003.992262 
102*2003.992262 102*2003.660648 
102*2003.660648 102*2003.329034 
102*2003.329034 102*2002.997421 
102*2002.997421 102*2002.665807 
102*2002.665807 102*2002.334193 
102*2002.334193 102*2002.002579 
102*2002.002579 102*2001.670966 
102*2001.670966 102*2001.339352 
102*2001.339352 102*2001.007738 
102*2001.007738 102*2000.676124 
102*2000.676124 102*2000.344510 
102*2000.344510 102*2000.012897 
102*2000.012897 102*1999.681283 
102*1999.681283 102*1999.349669 
102*1999.349669 102*1999.018055 
102*1999.018055 102*1998.686442 
102*1998.686442 102*1998.354828 
102*1998.354828 102*1998.023214 
102*1998.023214 102*1997.691600 
102*1997.691600 102*1997.359987 
102*1997.359987 102*1997.028373 
102*1997.028373 102*1996.696759 
102*1996.696759 102*1996.365145 
102*1996.365145 102*1996.033531 
102*1996.033531 102*1995.701918 
102*1995.701918 102*1995.370304 
102*1995.370304 102*1995.038690 
102*1995.038690 102*1994.707076 
102*1994.707076 102*1994.375463 
102*2011.287765 102*2010.956151 
102*2010.956151 102*2010.624537 
102*2010.624537 102*2010.292924 
102*2010.292924 102*2009.961310 
102*2009.961310 102*2009.629696 
102*2009.629696 102*2009.298082 
102*2009.298082 102*2008.966469 
102*2008.966469 102*2008.634855 
102*2008.634855 102*2008.303241 
102*2008.303241 102*2007.971627 
102*2007.971627 102*2007.640013 
102*2007.640013 102*2007.308400 
102*2007.308400 102*2006.976786 
102*2006.976786 102*2006.645172 
102*2006.645172 102*2006.313558 
102*2006.313558 102*2005.981945 
102*2005.981945 102*2005.650331 
102*2005.650331 102*2005.318717 
102*2005.318717 102*2004.987103 
102*2004.987103 102*2004.655490 
102*2004.655490 102*2004.323876 
102*2004.323876 102*2003.992262 
102*2003.992262 102*2003.660648 
102*2003.660648 102*2003.329034 
102*2003.329034 102*2002.997421 
102*2002.997421 102*2002.665807 
102*2002.665807 102*2002.334193 
102*2002.334193 102*2002.002579 
102*2002.002579 102*2001.670966 
102*2001.670966 102*2001.339352 
102*2001.339352 102*2001.007738 
102*2001.007738 102*2000.676124 
102*2000.676124 102*2000.344510 
102*2000.344510 102*2000.012897 
102*2000.012897 102*1999.681283 
102*1999.681283 102*1999.349669 
102*1999.349669 102*1999.018055 
102*1999.018055 102*1998.686442 
102*1998.686442 102*1998.354828 
102*1998.354828 102*1998.023214 
102*1998.023214 102*1997.691600 
102*1997.691600 102*1997.359987 
102*1997.359987 102*1997.028373 
102*1997.028373 102*1996.696759 
102*1996.696759 102*1996.365145 
102*1996.365145 102*1996.033531 
102*1996.033531 102*1995.701918 
102*1995.701918 102*1995.370304 
102*1995.370304 102*1995.038690 
102*1995.038690 102*1994.707076 
102*1994.707076 102*1994.375463 
102*2013.787765 102*2013.456151 
102*2013.456151 102*2013.124537 
102*2013.124537 102*2012.792924 
102*2012.792924 102*2012.461310 
102*2012.461310 102*2012.129696 
102*2012.129696 102*2011.798082 
102*2011.798082 102*2011.466469 
102*2011.466469 102*2011.134855 
102*2011.134855 102*2010.803241 
102*2010.803241 102*2010.471627 
102*2010.471627 102*2010.140013 
102*2010.140013 102*2009.808400 
102*2009.808400 102*2009.476786 
102*2009.476786 102*2009.145172 
102*2009.145172 102*2008.813558 
102*2008.813558 102*2008.481945 
102*2008.481945 102*2008.150331 
102*2008.150331 102*2007.818717 
102*2007.818717 102*2007.487103 
102*2007.487103 102*2007.155490 
102*2007.155490 102*2006.823876 
102*2006.823876 102*2006.492262 
102*2006.492262 102*2006.160648 
102*2006.160648 102*2005.829034 
102*2005.829034 102*2005.497421 
102*2005.497421 102*2005.165807 
102*2005.165807 102*2004.834193 
102*2004.834193 102*2004.502579 
102*2004.502579 102*2004.170966 
102*2004.170966 102*2003.839352 
102*2003.839352 102*2003.507738 
102*2003.507738 102*2003.176124 
102*2003.176124 102*2002.844510 
102*2002.844510 102*2002.512897 
102*2002.512897 102*2002.181283 
102*2002.181283 102*2001.849669 
102*2001.849669 102*2001.518055 
102*2001.518055 102*2001.186442 
102*2001.186442 102*2000.854828 
102*2000.854828 102*2000.523214 
102*2000.523214 102*2000.191600 
102*2000.191600 102*1999.859987 
102*1999.859987 102*1999.528373 
102*1999.528373 102*1999.196759 
102*1999.196759 102*1998.865145 
102*1998.865145 102*1998.533531 
102*1998.533531 102*1998.201918 
102*1998.201918 102*1997.870304 
102*1997.870304 102*1997.538690 
102*1997.538690 102*1997.207076 
102*1997.207076 102*1996.875463 
102*2013.787765 102*2013.456151 
102*2013.456151 102*2013.124537 
102*2013.124537 102*2012.792924 
102*2012.792924 102*2012.461310 
102*2012.461310 102*2012.129696 
102*2012.129696 102*2011.798082 
102*2011.798082 102*2011.466469 
102*2011.466469 102*2011.134855 
102*2011.134855 102*2010.803241 
102*2010.803241 102*2010.471627 
102*2010.471627 102*2010.140013 
102*2010.140013 102*2009.808400 
102*2009.808400 102*2009.476786 
102*2009.476786 102*2009.145172 
102*2009.145172 102*2008.813558 
102*2008.813558 102*2008.481945 
102*2008.481945 102*2008.150331 
102*2008.150331 102*2007.818717 
102*2007.818717 102*2007.487103 
102*2007.487103 102*2007.155490 
102*2007.155490 102*2006.823876 
102*2006.823876 102*2006.492262 
102*2006.492262 102*2006.160648 
102*2006.160648 102*2005.829034 
102*2005.829034 102*2005.497421 
102*2005.497421 102*2005.165807 
102*2005.165807 102*2004.834193 
102*2004.834193 102*2004.502579 
102*2004.502579 102*2004.170966 
102*2004.170966 102*2003.839352 
102*2003.839352 102*2003.507738 
102*2003.507738 102*2003.176124 
102*2003.176124 102*2002.844510 
102*2002.844510 102*2002.512897 
102*2002.512897 102*2002.181283 
102*2002.181283 102*2001.849669 
102*2001.849669 102*2001.518055 
102*2001.518055 102*2001.186442 
102*2001.186442 102*2000.854828 
102*2000.854828 102*2000.523214 
102*2000.523214 102*2000.191600 
102*2000.191600 102*1999.859987 
102*1999.859987 102*1999.528373 
102*1999.528373 102*1999.196759 
102*1999.196759 102*1998.865145 
102*1998.865145 102*1998.533531 
102*1998.533531 102*1998.201918 
102*1998.201918 102*1997.870304 
102*1997.870304 102*1997.538690 
102*1997.538690 102*1997.207076 
102*1997.207076 102*1996.875463 
102*2016.287765 102*2015.956151 
102*2015.956151 102*2015.624537 
102*2015.624537 102*2015.292924 
102*2015.292924 102*2014.961310 
102*2014.961310 102*2014.629696 
102*2014.629696 102*2014.298082 
102*2014.298082 102*2013.966469 
102*2013.966469 102*2013.634855 
102*2013.634855 102*2013.303241 
102*2013.303241 102*2012.971627 
102*2012.971627 102*2012.640013 
102*2012.640013 102*2012.308400 
102*2012.308400 102*2011.976786 
102*2011.976786 102*2011.645172 
102*2011.645172 102*2011.313558 
102*2011.313558 102*2010.981945 
102*2010.981945 102*2010.650331 
102*2010.650331 102*2010.318717 
102*2010.318717 102*2009.987103 
102*2009.987103 102*2009.655490 
102*2009.655490 102*2009.323876 
102*2009.323876 102*2008.992262 
102*2008.992262 102*2008.660648 
102*2008.660648 102*2008.329034 
102*2008.329034 102*2007.997421 
102*2007.997421 102*2007.665807 
102*2007.665807 102*2007.334193 
102*2007.334193 102*2007.002579 
102*2007.002579 102*2006.670966 
102*2006.670966 102*2006.339352 
102*2006.339352 102*2006.007738 
102*2006.007738 102*2005.676124 
102*2005.676124 102*2005.344510 
102*2005.344510 102*2005.012897 
102*2005.012897 102*2004.681283 
102*2004.681283 102*2004.349669 
102*2004.349669 102*2004.018055 
102*2004.018055 102*2003.686442 
102*2003.686442 102*2003.354828 
102*2003.354828 102*2003.023214 
102*2003.023214 102*2002.691600 
102*2002.691600 102*2002.359987 
102*2002.359987 102*2002.028373 
102*2002.028373 102*2001.696759 
102*2001.696759 102*2001.365145 
102*2001.365145 102*2001.033531 
102*2001.033531 102*2000.701918 
102*2000.701918 102*2000.370304 
102*2000.370304 102*2000.038690 
102*2000.038690 102*1999.707076 
102*1999.707076 102*1999.375463 
102*2016.287765 102*2015.956151 
102*2015.956151 102*2015.624537 
102*2015.624537 102*2015.292924 
102*2015.292924 102*2014.961310 
102*2014.961310 102*2014.629696 
102*2014.629696 102*2014.298082 
102*2014.298082 102*2013.966469 
102*2013.966469 102*2013.634855 
102*2013.634855 102*2013.303241 
102*2013.303241 102*2012.971627 
102*2012.971627 102*2012.640013 
102*2012.640013 102*2012.308400 
102*2012.308400 102*2011.976786 
102*2011.976786 102*2011.645172 
102*2011.645172 102*2011.313558 
102*2011.313558 102*2010.981945 
102*2010.981945 102*2010.650331 
102*2010.650331 102*2010.318717 
102*2010.318717 102*2009.987103 
102*2009.987103 102*2009.655490 
102*2009.655490 102*2009.323876 
102*2009.323876 102*2008.992262 
102*2008.992262 102*2008.660648 
102*2008.660648 102*2008.329034 
102*2008.329034 102*2007.997421 
102*2007.997421 102*2007.665807 
102*2007.665807 102*2007.334193 
102*2007.334193 102*2007.002579 
102*2007.002579 102*2006.670966 
102*2006.670966 102*2006.339352 
102*2006.339352 102*2006.007738 
102*2006.007738 102*2005.676124 
102*2005.676124 102*2005.344510 
102*2005.344510 102*2005.012897 
102*2005.012897 102*2004.681283 
102*2004.681283 102*2004.349669 
102*2004.349669 102*2004.018055 
102*2004.018055 102*2003.686442 
102*2003.686442 102*2003.354828 
102*2003.354828 102*2003.023214 
102*2003.023214 102*2002.691600 
102*2002.691600 102*2002.359987 
102*2002.359987 102*2002.028373 
102*2002.028373 102*2001.696759 
102*2001.696759 102*2001.365145 
102*2001.365145 102*2001.033531 
102*2001.033531 102*2000.701918 
102*2000.701918 102*2000.370304 
102*2000.370304 102*2000.038690 
102*2000.038690 102*1999.707076 
102*1999.707076 102*1999.375463 
102*2018.787765 102*2018.456151 
102*2018.456151 102*2018.124537 
102*2018.124537 102*2017.792924 
102*2017.792924 102*2017.461310 
102*2017.461310 102*2017.129696 
102*2017.129696 102*2016.798082 
102*2016.798082 102*2016.466469 
102*2016.466469 102*2016.134855 
102*2016.134855 102*2015.803241 
102*2015.803241 102*2015.471627 
102*2015.471627 102*2015.140013 
102*2015.140013 102*2014.808400 
102*2014.808400 102*2014.476786 
102*2014.476786 102*2014.145172 
102*2014.145172 102*2013.813558 
102*2013.813558 102*2013.481945 
102*2013.481945 102*2013.150331 
102*2013.150331 102*2012.818717 
102*2012.818717 102*2012.487103 
102*2012.487103 102*2012.155490 
102*2012.155490 102*2011.823876 
102*2011.823876 102*2011.492262 
102*2011.492262 102*2011.160648 
102*2011.160648 102*2010.829034 
102*2010.829034 102*2010.497421 
102*2010.497421 102*2010.165807 
102*2010.165807 102*2009.834193 
102*2009.834193 102*2009.502579 
102*2009.502579 102*2009.170966 
102*2009.170966 102*2008.839352 
102*2008.839352 102*2008.507738 
102*2008.507738 102*2008.176124 
102*2008.176124 102*2007.844510 
102*2007.844510 102*2007.512897 
102*2007.512897 102*2007.181283 
102*2007.181283 102*2006.849669 
102*2006.849669 102*2006.518055 
102*2006.518055 102*2006.186442 
102*2006.186442 102*2005.854828 
102*2005.854828 102*2005.523214 
102*2005.523214 102*2005.191600 
102*2005.191600 102*2004.859987 
102*2004.859987 102*2004.528373 
102*2004.528373 102*2004.196759 
102*2004.196759 102*2003.865145 
102*2003.865145 102*2003.533531 
102*2003.533531 102*2003.201918 
102*2003.201918 102*2002.870304 
102*2002.870304 102*2002.538690 
102*2002.538690 102*2002.207076 
102*2002.207076 102*2001.875463 
102*2018.787765 102*2018.456151 
102*2018.456151 102*2018.124537 
102*2018.124537 102*2017.792924 
102*2017.792924 102*2017.461310 
102*2017.461310 102*2017.129696 
102*2017.129696 102*2016.798082 
102*2016.798082 102*2016.466469 
102*2016.466469 102*2016.134855 
102*2016.134855 102*2015.803241 
102*2015.803241 102*2015.471627 
102*2015.471627 102*2015.140013 
102*2015.140013 102*2014.808400 
102*2014.808400 102*2014.476786 
102*2014.476786 102*2014.145172 
102*2014.145172 102*2013.813558 
102*2013.813558 102*2013.481945 
102*2013.481945 102*2013.150331 
102*2013.150331 102*2012.818717 
102*2012.818717 102*2012.487103 
102*2012.487103 102*2012.155490 
102*2012.155490 102*2011.823876 
102*2011.823876 102*2011.492262 
102*2011.492262 102*2011.160648 
102*2011.160648 102*2010.829034 
102*2010.829034 102*2010.497421 
102*2010.497421 102*2010.165807 
102*2010.165807 102*2009.834193 
102*2009.834193 102*2009.502579 
102*2009.502579 102*2009.170966 
102*2009.170966 102*2008.839352 
102*2008.839352 102*2008.507738 
102*2008.507738 102*2008.176124 
102*2008.176124 102*2007.844510 
102*2007.844510 102*2007.512897 
102*2007.512897 102*2007.181283 
102*2007.181283 102*2006.849669 
102*2006.849669 102*2006.518055 
102*2006.518055 102*2006.186442 
102*2006.186442 102*2005.854828 
102*2005.854828 102*2005.523214 
102*2005.523214 102*2005.191600 
102*2005.191600 102*2004.859987 
102*2004.859987 102*2004.528373 
102*2004.528373 102*2004.196759 
102*2004.196759 102*2003.865145 
102*2003.865145 102*2003.533531 
102*2003.533531 102*2003.201918 
102*2003.201918 102*2002.870304 
102*2002.870304 102*2002.538690 
102*2002.538690 102*2002.207076 
102*2002.207076 102*2001.875463 
102*2021.287765 102*2020.956151 
102*2020.956151 102*2020.624537 
102*2020.624537 102*2020.292924 
102*2020.292924 102*2019.961310 
102*2019.961310 102*2019.629696 
102*2019.629696 102*2019.298082 
102*2019.298082 102*2018.966469 
102*2018.966469 102*2018.634855 
102*2018.634855 102*2018.303241 
102*2018.303241 102*2017.971627 
102*2017.971627 102*2017.640013 
102*2017.640013 102*2017.308400 
102*2017.308400 102*2016.976786 
102*2016.976786 102*2016.645172 
102*2016.645172 102*2016.313558 
102*2016.313558 102*2015.981945 
102*2015.981945 102*2015.650331 
102*2015.650331 102*2015.318717 
102*2015.318717 102*2014.987103 
102*2014.987103 102*2014.655490 
102*2014.655490 102*2014.323876 
102*2014.323876 102*2013.992262 
102*2013.992262 102*2013.660648 
102*2013.660648 102*2013.329034 
102*2013.329034 102*2012.997421 
102*2012.997421 102*2012.665807 
102*2012.665807 102*2012.334193 
102*2012.334193 102*2012.002579 
102*2012.002579 102*2011.670966 
102*2011.670966 102*2011.339352 
102*2011.339352 102*2011.007738 
102*2011.007738 102*2010.676124 
102*2010.676124 102*2010.344510 
102*2010.344510 102*2010.012897 
102*2010.012897 102*2009.681283 
102*2009.681283 102*2009.349669 
102*2009.349669 102*2009.018055 
102*2009.018055 102*2008.686442 
102*2008.686442 102*2008.354828 
102*2008.354828 102*2008.023214 
102*2008.023214 102*2007.691600 
102*2007.691600 102*2007.359987 
102*2007.359987 102*2007.028373 
102*2007.028373 102*2006.696759 
102*2006.696759 102*2006.365145 
102*2006.365145 102*2006.033531 
102*2006.033531 102*2005.701918 
102*2005.701918 102*2005.370304 
102*2005.370304 102*2005.038690 
102*2005.038690 102*2004.707076 
102*2004.707076 102*2004.375463 
102*2021.287765 102*2020.956151 
102*2020.956151 102*2020.624537 
102*2020.624537 102*2020.292924 
102*2020.292924 102*2019.961310 
102*2019.961310 102*2019.629696 
102*2019.629696 102*2019.298082 
102*2019.298082 102*2018.966469 
102*2018.966469 102*2018.634855 
102*2018.634855 102*2018.303241 
102*2018.303241 102*2017.971627 
102*2017.971627 102*2017.640013 
102*2017.640013 102*2017.308400 
102*2017.308400 102*2016.976786 
102*2016.976786 102*2016.645172 
102*2016.645172 102*2016.313558 
102*2016.313558 102*2015.981945 
102*2015.981945 102*2015.650331 
102*2015.650331 102*2015.318717 
102*2015.318717 102*2014.987103 
102*2014.987103 102*2014.655490 
102*2014.655490 102*2014.323876 
102*2014.323876 102*2013.992262 
102*2013.992262 102*2013.660648 
102*2013.660648 102*2013.329034 
102*2013.329034 102*2012.997421 
102*2012.997421 102*2012.665807 
102*2012.665807 102*2012.334193 
102*2012.334193 102*2012.002579 
102*2012.002579 102*2011.670966 
102*2011.670966 102*2011.339352 
102*2011.339352 102*2011.007738 
102*2011.007738 102*2010.676124 
102*2010.676124 102*2010.344510 
102*2010.344510 102*2010.012897 
102*2010.012897 102*2009.681283 
102*2009.681283 102*2009.349669 
102*2009.349669 102*2009.018055 
102*2009.018055 102*2008.686442 
102*2008.686442 102*2008.354828 
102*2008.354828 102*2008.023214 
102*2008.023214 102*2007.691600 
102*2007.691600 102*2007.359987 
102*2007.359987 102*2007.028373 
102*2007.028373 102*2006.696759 
102*2006.696759 102*2006.365145 
102*2006.365145 102*2006.033531 
102*2006.033531 102*2005.701918 
102*2005.701918 102*2005.370304 
102*2005.370304 102*2005.038690 
102*2005.038690 102*2004.707076 
102*2004.707076 102*2004.375463 
102*2023.787765 102*2023.456151 
102*2023.456151 102*2023.124537 
102*2023.124537 102*2022.792924 
102*2022.792924 102*2022.461310 
102*2022.461310 102*2022.129696 
102*2022.129696 102*2021.798082 
102*2021.798082 102*2021.466469 
102*2021.466469 102*2021.134855 
102*2021.134855 102*2020.803241 
102*2020.803241 102*2020.471627 
102*2020.471627 102*2020.140013 
102*2020.140013 102*2019.808400 
102*2019.808400 102*2019.476786 
102*2019.476786 102*2019.145172 
102*2019.145172 102*2018.813558 
102*2018.813558 102*2018.481945 
102*2018.481945 102*2018.150331 
102*2018.150331 102*2017.818717 
102*2017.818717 102*2017.487103 
102*2017.487103 102*2017.155490 
102*2017.155490 102*2016.823876 
102*2016.823876 102*2016.492262 
102*2016.492262 102*2016.160648 
102*2016.160648 102*2015.829034 
102*2015.829034 102*2015.497421 
102*2015.497421 102*2015.165807 
102*2015.165807 102*2014.834193 
102*2014.834193 102*2014.502579 
102*2014.502579 102*2014.170966 
102*2014.170966 102*2013.839352 
102*2013.839352 102*2013.507738 
102*2013.507738 102*2013.176124 
102*2013.176124 102*2012.844510 
102*2012.844510 102*2012.512897 
102*2012.512897 102*2012.181283 
102*2012.181283 102*2011.849669 
102*2011.849669 102*2011.518055 
102*2011.518055 102*2011.186442 
102*2011.186442 102*2010.854828 
102*2010.854828 102*2010.523214 
102*2010.523214 102*2010.191600 
102*2010.191600 102*2009.859987 
102*2009.859987 102*2009.528373 
102*2009.528373 102*2009.196759 
102*2009.196759 102*2008.865145 
102*2008.865145 102*2008.533531 
102*2008.533531 102*2008.201918 
102*2008.201918 102*2007.870304 
102*2007.870304 102*2007.538690 
102*2007.538690 102*2007.207076 
102*2007.207076 102*2006.875463 
102*2023.787765 102*2023.456151 
102*2023.456151 102*2023.124537 
102*2023.124537 102*2022.792924 
102*2022.792924 102*2022.461310 
102*2022.461310 102*2022.129696 
102*2022.129696 102*2021.798082 
102*2021.798082 102*2021.466469 
102*2021.466469 102*2021.134855 
102*2021.134855 102*2020.803241 
102*2020.803241 102*2020.471627 
102*2020.471627 102*2020.140013 
102*2020.140013 102*2019.808400 
102*2019.808400 102*2019.476786 
102*2019.476786 102*2019.145172 
102*2019.145172 102*2018.813558 
102*2018.813558 102*2018.481945 
102*2018.481945 102*2018.150331 
102*2018.150331 102*2017.818717 
102*2017.818717 102*2017.487103 
102*2017.487103 102*2017.155490 
102*2017.155490 102*2016.823876 
102*2016.823876 102*2016.492262 
102*2016.492262 102*2016.160648 
102*2016.160648 102*2015.829034 
102*2015.829034 102*2015.497421 
102*2015.497421 102*2015.165807 
102*2015.165807 102*2014.834193 
102*2014.834193 102*2014.502579 
102*2014.502579 102*2014.170966 
102*2014.170966 102*2013.839352 
102*2013.839352 102*2013.507738 
102*2013.507738 102*2013.176124 
102*2013.176124 102*2012.844510 
102*2012.844510 102*2012.512897 
102*2012.512897 102*2012.181283 
102*2012.181283 102*2011.849669 
102*2011.849669 102*2011.518055 
102*2011.518055 102*2011.186442 
102*2011.186442 102*2010.854828 
102*2010.854828 102*2010.523214 
102*2010.523214 102*2010.191600 
102*2010.191600 102*2009.859987 
102*2009.859987 102*2009.528373 
102*2009.528373 102*2009.196759 
102*2009.196759 102*2008.865145 
102*2008.865145 102*2008.533531 
102*2008.533531 102*2008.201918 
102*2008.201918 102*2007.870304 
102*2007.870304 102*2007.538690 
102*2007.538690 102*2007.207076 
102*2007.207076 102*2006.875463 
102*2026.287765 102*2025.956151 
102*2025.956151 102*2025.624537 
102*2025.624537 102*2025.292924 
102*2025.292924 102*2024.961310 
102*2024.961310 102*2024.629696 
102*2024.629696 102*2024.298082 
102*2024.298082 102*2023.966469 
102*2023.966469 102*2023.634855 
102*2023.634855 102*2023.303241 
102*2023.303241 102*2022.971627 
102*2022.971627 102*2022.640013 
102*2022.640013 102*2022.308400 
102*2022.308400 102*2021.976786 
102*2021.976786 102*2021.645172 
102*2021.645172 102*2021.313558 
102*2021.313558 102*2020.981945 
102*2020.981945 102*2020.650331 
102*2020.650331 102*2020.318717 
102*2020.318717 102*2019.987103 
102*2019.987103 102*2019.655490 
102*2019.655490 102*2019.323876 
102*2019.323876 102*2018.992262 
102*2018.992262 102*2018.660648 
102*2018.660648 102*2018.329034 
102*2018.329034 102*2017.997421 
102*2017.997421 102*2017.665807 
102*2017.665807 102*2017.334193 
102*2017.334193 102*2017.002579 
102*2017.002579 102*2016.670966 
102*2016.670966 102*2016.339352 
102*2016.339352 102*2016.007738 
102*2016.007738 102*2015.676124 
102*2015.676124 102*2015.344510 
102*2015.344510 102*2015.012897 
102*2015.012897 102*2014.681283 
102*2014.681283 102*2014.349669 
102*2014.349669 102*2014.018055 
102*2014.018055 102*2013.686442 
102*2013.686442 102*2013.354828 
102*2013.354828 102*2013.023214 
102*2013.023214 102*2012.691600 
102*2012.691600 102*2012.359987 
102*2012.359987 102*2012.028373 
102*2012.028373 102*2011.696759 
102*2011.696759 102*2011.365145 
102*2011.365145 102*2011.033531 
102*2011.033531 102*2010.701918 
102*2010.701918 102*2010.370304 
102*2010.370304 102*2010.038690 
102*2010.038690 102*2009.707076 
102*2009.707076 102*2009.375463 
102*2026.287765 102*2025.956151 
102*2025.956151 102*2025.624537 
102*2025.624537 102*2025.292924 
102*2025.292924 102*2024.961310 
102*2024.961310 102*2024.629696 
102*2024.629696 102*2024.298082 
102*2024.298082 102*2023.966469 
102*2023.966469 102*2023.634855 
102*2023.634855 102*2023.303241 
102*2023.303241 102*2022.971627 
102*2022.971627 102*2022.640013 
102*2022.640013 102*2022.308400 
102*2022.308400 102*2021.976786 
102*2021.976786 102*2021.645172 
102*2021.645172 102*2021.313558 
102*2021.313558 102*2020.981945 
102*2020.981945 102*2020.650331 
102*2020.650331 102*2020.318717 
102*2020.318717 102*2019.987103 
102*2019.987103 102*2019.655490 
102*2019.655490 102*2019.323876 
102*2019.323876 102*2018.992262 
102*2018.992262 102*2018.660648 
102*2018.660648 102*2018.329034 
102*2018.329034 102*2017.997421 
102*2017.997421 102*2017.665807 
102*2017.665807 102*2017.334193 
102*2017.334193 102*2017.002579 
102*2017.002579 102*2016.670966 
102*2016.670966 102*2016.339352 
102*2016.339352 102*2016.007738 
102*2016.007738 102*2015.676124 
102*2015.676124 102*2015.344510 
102*2015.344510 102*2015.012897 
102*2015.012897 102*2014.681283 
102*2014.681283 102*2014.349669 
102*2014.349669 102*2014.018055 
102*2014.018055 102*2013.686442 
102*2013.686442 102*2013.354828 
102*2013.354828 102*2013.023214 
102*2013.023214 102*2012.691600 
102*2012.691600 102*2012.359987 
102*2012.359987 102*2012.028373 
102*2012.028373 102*2011.696759 
102*2011.696759 102*2011.365145 
102*2011.365145 102*2011.033531 
102*2011.033531 102*2010.701918 
102*2010.701918 102*2010.370304 
102*2010.370304 102*2010.038690 
102*2010.038690 102*2009.707076 
102*2009.707076 102*2009.375463 
102*2028.787765 102*2028.456151 
102*2028.456151 102*2028.124537 
102*2028.124537 102*2027.792924 
102*2027.792924 102*2027.461310 
102*2027.461310 102*2027.129696 
102*2027.129696 102*2026.798082 
102*2026.798082 102*2026.466469 
102*2026.466469 102*2026.134855 
102*2026.134855 102*2025.803241 
102*2025.803241 102*2025.471627 
102*2025.471627 102*2025.140013 
102*2025.140013 102*2024.808400 
102*2024.808400 102*2024.476786 
102*2024.476786 102*2024.145172 
102*2024.145172 102*2023.813558 
102*2023.813558 102*2023.481945 
102*2023.481945 102*2023.150331 
102*2023.150331 102*2022.818717 
102*2022.818717 102*2022.487103 
102*2022.487103 102*2022.155490 
102*2022.155490 102*2021.823876 
102*2021.823876 102*2021.492262 
102*2021.492262 102*2021.160648 
102*2021.160648 102*2020.829034 
102*2020.829034 102*2020.497421 
102*2020.497421 102*2020.165807 
102*2020.165807 102*2019.834193 
102*2019.834193 102*2019.502579 
102*2019.502579 102*2019.170966 
102*2019.170966 102*2018.839352 
102*2018.839352 102*2018.507738 
102*2018.507738 102*2018.176124 
102*2018.176124 102*2017.844510 
102*2017.844510 102*2017.512897 
102*2017.512897 102*2017.181283 
102*2017.181283 102*2016.849669 
102*2016.849669 102*2016.518055 
102*2016.518055 102*2016.186442 
102*2016.186442 102*2015.854828 
102*2015.854828 102*2015.523214 
102*2015.523214 102*2015.191600 
102*2015.191600 102*2014.859987 
102*2014.859987 102*2014.528373 
102*2014.528373 102*2014.196759 
102*2014.196759 102*2013.865145 
102*2013.865145 102*2013.533531 
102*2013.533531 102*2013.201918 
102*2013.201918 102*2012.870304 
102*2012.870304 102*2012.538690 
102*2012.538690 102*2012.207076 
102*2012.207076 102*2011.875463 
102*2028.787765 102*2028.456151 
102*2028.456151 102*2028.124537 
102*2028.124537 102*2027.792924 
102*2027.792924 102*2027.461310 
102*2027.461310 102*2027.129696 
102*2027.129696 102*2026.798082 
102*2026.798082 102*2026.466469 
102*2026.466469 102*2026.134855 
102*2026.134855 102*2025.803241 
102*2025.803241 102*2025.471627 
102*2025.471627 102*2025.140013 
102*2025.140013 102*2024.808400 
102*2024.808400 102*2024.476786 
102*2024.476786 102*2024.145172 
102*2024.145172 102*2023.813558 
102*2023.813558 102*2023.481945 
102*2023.481945 102*2023.150331 
102*2023.150331 102*2022.818717 
102*2022.818717 102*2022.487103 
102*2022.487103 102*2022.155490 
102*2022.155490 102*2021.823876 
102*2021.823876 102*2021.492262 
102*2021.492262 102*2021.160648 
102*2021.160648 102*2020.829034 
102*2020.829034 102*2020.497421 
102*2020.497421 102*2020.165807 
102*2020.165807 102*2019.834193 
102*2019.834193 102*2019.502579 
102*2019.502579 102*2019.170966 
102*2019.170966 102*2018.839352 
102*2018.839352 102*2018.507738 
102*2018.507738 102*2018.176124 
102*2018.176124 102*2017.844510 
102*2017.844510 102*2017.512897 
102*2017.512897 102*2017.181283 
102*2017.181283 102*2016.849669 
102*2016.849669 102*2016.518055 
102*2016.518055 102*2016.186442 
102*2016.186442 102*2015.854828 
102*2015.854828 102*2015.523214 
102*2015.523214 102*2015.191600 
102*2015.191600 102*2014.859987 
102*2014.859987 102*2014.528373 
102*2014.528373 102*2014.196759 
102*2014.196759 102*2013.865145 
102*2013.865145 102*2013.533531 
102*2013.533531 102*2013.201918 
102*2013.201918 102*2012.870304 
102*2012.870304 102*2012.538690 
102*2012.538690 102*2012.207076 
102*2012.207076 102*2011.875463 
102*2031.287765 102*2030.956151 
102*2030.956151 102*2030.624537 
102*2030.624537 102*2030.292924 
102*2030.292924 102*2029.961310 
102*2029.961310 102*2029.629696 
102*2029.629696 102*2029.298082 
102*2029.298082 102*2028.966469 
102*2028.966469 102*2028.634855 
102*2028.634855 102*2028.303241 
102*2028.303241 102*2027.971627 
102*2027.971627 102*2027.640013 
102*2027.640013 102*2027.308400 
102*2027.308400 102*2026.976786 
102*2026.976786 102*2026.645172 
102*2026.645172 102*2026.313558 
102*2026.313558 102*2025.981945 
102*2025.981945 102*2025.650331 
102*2025.650331 102*2025.318717 
102*2025.318717 102*2024.987103 
102*2024.987103 102*2024.655490 
102*2024.655490 102*2024.323876 
102*2024.323876 102*2023.992262 
102*2023.992262 102*2023.660648 
102*2023.660648 102*2023.329034 
102*2023.329034 102*2022.997421 
102*2022.997421 102*2022.665807 
102*2022.665807 102*2022.334193 
102*2022.334193 102*2022.002579 
102*2022.002579 102*2021.670966 
102*2021.670966 102*2021.339352 
102*2021.339352 102*2021.007738 
102*2021.007738 102*2020.676124 
102*2020.676124 102*2020.344510 
102*2020.344510 102*2020.012897 
102*2020.012897 102*2019.681283 
102*2019.681283 102*2019.349669 
102*2019.349669 102*2019.018055 
102*2019.018055 102*2018.686442 
102*2018.686442 102*2018.354828 
102*2018.354828 102*2018.023214 
102*2018.023214 102*2017.691600 