ZCORN
102*2021.276021 102*2020.473152 
102*2020.473152 102*2019.670283 
102*2019.670283 102*2018.867415 
102*2018.867415 102*2018.064546 
102*2018.064546 102*2017.261677 
102*2017.261677 102*2016.458808 
102*2016.458808 102*2015.655940 
102*2015.655940 102*2014.853071 
102*2014.853071 102*2014.050202 
102*2014.050202 102*2013.247334 
102*2013.247334 102*2012.444465 
102*2012.444465 102*2011.641596 
102*2011.641596 102*2010.838728 
102*2010.838728 102*2010.035859 
102*2010.035859 102*2009.232990 
102*2009.232990 102*2008.430121 
102*2008.430121 102*2007.627253 
102*2007.627253 102*2006.824384 
102*2006.824384 102*2006.021515 
102*2006.021515 102*2005.218647 
102*2005.218647 102*2004.415778 
102*2004.415778 102*2003.612909 
102*2003.612909 102*2002.810040 
102*2002.810040 102*2002.007172 
102*2002.007172 102*2001.204303 
102*2001.204303 102*2000.401434 
102*2000.401434 102*1999.598566 
102*1999.598566 102*1998.795697 
102*1998.795697 102*1997.992828 
102*1997.992828 102*1997.189960 
102*1997.189960 102*1996.387091 
102*1996.387091 102*1995.584222 
102*1995.584222 102*1994.781353 
102*1994.781353 102*1993.978485 
102*1993.978485 102*1993.175616 
102*1993.175616 102*1992.372747 
102*1992.372747 102*1991.569879 
102*1991.569879 102*1990.767010 
102*1990.767010 102*1989.964141 
102*1989.964141 102*1989.161272 
102*1989.161272 102*1988.358404 
102*1988.358404 102*1987.555535 
102*1987.555535 102*1986.752666 
102*1986.752666 102*1985.949798 
102*1985.949798 102*1985.146929 
102*1985.146929 102*1984.344060 
102*1984.344060 102*1983.541192 
102*1983.541192 102*1982.738323 
102*1982.738323 102*1981.935454 
102*1981.935454 102*1981.132585 
102*1981.132585 102*1980.329717 
102*2023.776021 102*2022.973152 
102*2022.973152 102*2022.170283 
102*2022.170283 102*2021.367415 
102*2021.367415 102*2020.564546 
102*2020.564546 102*2019.761677 
102*2019.761677 102*2018.958808 
102*2018.958808 102*2018.155940 
102*2018.155940 102*2017.353071 
102*2017.353071 102*2016.550202 
102*2016.550202 102*2015.747334 
102*2015.747334 102*2014.944465 
102*2014.944465 102*2014.141596 
102*2014.141596 102*2013.338728 
102*2013.338728 102*2012.535859 
102*2012.535859 102*2011.732990 
102*2011.732990 102*2010.930121 
102*2010.930121 102*2010.127253 
102*2010.127253 102*2009.324384 
102*2009.324384 102*2008.521515 
102*2008.521515 102*2007.718647 
102*2007.718647 102*2006.915778 
102*2006.915778 102*2006.112909 
102*2006.112909 102*2005.310040 
102*2005.310040 102*2004.507172 
102*2004.507172 102*2003.704303 
102*2003.704303 102*2002.901434 
102*2002.901434 102*2002.098566 
102*2002.098566 102*2001.295697 
102*2001.295697 102*2000.492828 
102*2000.492828 102*1999.689960 
102*1999.689960 102*1998.887091 
102*1998.887091 102*1998.084222 
102*1998.084222 102*1997.281353 
102*1997.281353 102*1996.478485 
102*1996.478485 102*1995.675616 
102*1995.675616 102*1994.872747 
102*1994.872747 102*1994.069879 
102*1994.069879 102*1993.267010 
102*1993.267010 102*1992.464141 
102*1992.464141 102*1991.661272 
102*1991.661272 102*1990.858404 
102*1990.858404 102*1990.055535 
102*1990.055535 102*1989.252666 
102*1989.252666 102*1988.449798 
102*1988.449798 102*1987.646929 
102*1987.646929 102*1986.844060 
102*1986.844060 102*1986.041192 
102*1986.041192 102*1985.238323 
102*1985.238323 102*1984.435454 
102*1984.435454 102*1983.632585 
102*1983.632585 102*1982.829717 
102*2023.776021 102*2022.973152 
102*2022.973152 102*2022.170283 
102*2022.170283 102*2021.367415 
102*2021.367415 102*2020.564546 
102*2020.564546 102*2019.761677 
102*2019.761677 102*2018.958808 
102*2018.958808 102*2018.155940 
102*2018.155940 102*2017.353071 
102*2017.353071 102*2016.550202 
102*2016.550202 102*2015.747334 
102*2015.747334 102*2014.944465 
102*2014.944465 102*2014.141596 
102*2014.141596 102*2013.338728 
102*2013.338728 102*2012.535859 
102*2012.535859 102*2011.732990 
102*2011.732990 102*2010.930121 
102*2010.930121 102*2010.127253 
102*2010.127253 102*2009.324384 
102*2009.324384 102*2008.521515 
102*2008.521515 102*2007.718647 
102*2007.718647 102*2006.915778 
102*2006.915778 102*2006.112909 
102*2006.112909 102*2005.310040 
102*2005.310040 102*2004.507172 
102*2004.507172 102*2003.704303 
102*2003.704303 102*2002.901434 
102*2002.901434 102*2002.098566 
102*2002.098566 102*2001.295697 
102*2001.295697 102*2000.492828 
102*2000.492828 102*1999.689960 
102*1999.689960 102*1998.887091 
102*1998.887091 102*1998.084222 
102*1998.084222 102*1997.281353 
102*1997.281353 102*1996.478485 
102*1996.478485 102*1995.675616 
102*1995.675616 102*1994.872747 
102*1994.872747 102*1994.069879 
102*1994.069879 102*1993.267010 
102*1993.267010 102*1992.464141 
102*1992.464141 102*1991.661272 
102*1991.661272 102*1990.858404 
102*1990.858404 102*1990.055535 
102*1990.055535 102*1989.252666 
102*1989.252666 102*1988.449798 
102*1988.449798 102*1987.646929 
102*1987.646929 102*1986.844060 
102*1986.844060 102*1986.041192 
102*1986.041192 102*1985.238323 
102*1985.238323 102*1984.435454 
102*1984.435454 102*1983.632585 
102*1983.632585 102*1982.829717 
102*2026.276021 102*2025.473152 
102*2025.473152 102*2024.670283 
102*2024.670283 102*2023.867415 
102*2023.867415 102*2023.064546 
102*2023.064546 102*2022.261677 
102*2022.261677 102*2021.458808 
102*2021.458808 102*2020.655940 
102*2020.655940 102*2019.853071 
102*2019.853071 102*2019.050202 
102*2019.050202 102*2018.247334 
102*2018.247334 102*2017.444465 
102*2017.444465 102*2016.641596 
102*2016.641596 102*2015.838728 
102*2015.838728 102*2015.035859 
102*2015.035859 102*2014.232990 
102*2014.232990 102*2013.430121 
102*2013.430121 102*2012.627253 
102*2012.627253 102*2011.824384 
102*2011.824384 102*2011.021515 
102*2011.021515 102*2010.218647 
102*2010.218647 102*2009.415778 
102*2009.415778 102*2008.612909 
102*2008.612909 102*2007.810040 
102*2007.810040 102*2007.007172 
102*2007.007172 102*2006.204303 
102*2006.204303 102*2005.401434 
102*2005.401434 102*2004.598566 
102*2004.598566 102*2003.795697 
102*2003.795697 102*2002.992828 
102*2002.992828 102*2002.189960 
102*2002.189960 102*2001.387091 
102*2001.387091 102*2000.584222 
102*2000.584222 102*1999.781353 
102*1999.781353 102*1998.978485 
102*1998.978485 102*1998.175616 
102*1998.175616 102*1997.372747 
102*1997.372747 102*1996.569879 
102*1996.569879 102*1995.767010 
102*1995.767010 102*1994.964141 
102*1994.964141 102*1994.161272 
102*1994.161272 102*1993.358404 
102*1993.358404 102*1992.555535 
102*1992.555535 102*1991.752666 
102*1991.752666 102*1990.949798 
102*1990.949798 102*1990.146929 
102*1990.146929 102*1989.344060 
102*1989.344060 102*1988.541192 
102*1988.541192 102*1987.738323 
102*1987.738323 102*1986.935454 
102*1986.935454 102*1986.132585 
102*1986.132585 102*1985.329717 
102*2026.276021 102*2025.473152 
102*2025.473152 102*2024.670283 
102*2024.670283 102*2023.867415 
102*2023.867415 102*2023.064546 
102*2023.064546 102*2022.261677 
102*2022.261677 102*2021.458808 
102*2021.458808 102*2020.655940 
102*2020.655940 102*2019.853071 
102*2019.853071 102*2019.050202 
102*2019.050202 102*2018.247334 
102*2018.247334 102*2017.444465 
102*2017.444465 102*2016.641596 
102*2016.641596 102*2015.838728 
102*2015.838728 102*2015.035859 
102*2015.035859 102*2014.232990 
102*2014.232990 102*2013.430121 
102*2013.430121 102*2012.627253 
102*2012.627253 102*2011.824384 
102*2011.824384 102*2011.021515 
102*2011.021515 102*2010.218647 
102*2010.218647 102*2009.415778 
102*2009.415778 102*2008.612909 
102*2008.612909 102*2007.810040 
102*2007.810040 102*2007.007172 
102*2007.007172 102*2006.204303 
102*2006.204303 102*2005.401434 
102*2005.401434 102*2004.598566 
102*2004.598566 102*2003.795697 
102*2003.795697 102*2002.992828 
102*2002.992828 102*2002.189960 
102*2002.189960 102*2001.387091 
102*2001.387091 102*2000.584222 
102*2000.584222 102*1999.781353 
102*1999.781353 102*1998.978485 
102*1998.978485 102*1998.175616 
102*1998.175616 102*1997.372747 
102*1997.372747 102*1996.569879 
102*1996.569879 102*1995.767010 
102*1995.767010 102*1994.964141 
102*1994.964141 102*1994.161272 
102*1994.161272 102*1993.358404 
102*1993.358404 102*1992.555535 
102*1992.555535 102*1991.752666 
102*1991.752666 102*1990.949798 
102*1990.949798 102*1990.146929 
102*1990.146929 102*1989.344060 
102*1989.344060 102*1988.541192 
102*1988.541192 102*1987.738323 
102*1987.738323 102*1986.935454 
102*1986.935454 102*1986.132585 
102*1986.132585 102*1985.329717 
102*2028.776021 102*2027.973152 
102*2027.973152 102*2027.170283 
102*2027.170283 102*2026.367415 
102*2026.367415 102*2025.564546 
102*2025.564546 102*2024.761677 
102*2024.761677 102*2023.958808 
102*2023.958808 102*2023.155940 
102*2023.155940 102*2022.353071 
102*2022.353071 102*2021.550202 
102*2021.550202 102*2020.747334 
102*2020.747334 102*2019.944465 
102*2019.944465 102*2019.141596 
102*2019.141596 102*2018.338728 
102*2018.338728 102*2017.535859 
102*2017.535859 102*2016.732990 
102*2016.732990 102*2015.930121 
102*2015.930121 102*2015.127253 
102*2015.127253 102*2014.324384 
102*2014.324384 102*2013.521515 
102*2013.521515 102*2012.718647 
102*2012.718647 102*2011.915778 
102*2011.915778 102*2011.112909 
102*2011.112909 102*2010.310040 
102*2010.310040 102*2009.507172 
102*2009.507172 102*2008.704303 
102*2008.704303 102*2007.901434 
102*2007.901434 102*2007.098566 
102*2007.098566 102*2006.295697 
102*2006.295697 102*2005.492828 
102*2005.492828 102*2004.689960 
102*2004.689960 102*2003.887091 
102*2003.887091 102*2003.084222 
102*2003.084222 102*2002.281353 
102*2002.281353 102*2001.478485 
102*2001.478485 102*2000.675616 
102*2000.675616 102*1999.872747 
102*1999.872747 102*1999.069879 
102*1999.069879 102*1998.267010 
102*1998.267010 102*1997.464141 
102*1997.464141 102*1996.661272 
102*1996.661272 102*1995.858404 
102*1995.858404 102*1995.055535 
102*1995.055535 102*1994.252666 
102*1994.252666 102*1993.449798 
102*1993.449798 102*1992.646929 
102*1992.646929 102*1991.844060 
102*1991.844060 102*1991.041192 
102*1991.041192 102*1990.238323 
102*1990.238323 102*1989.435454 
102*1989.435454 102*1988.632585 
102*1988.632585 102*1987.829717 
102*2028.776021 102*2027.973152 
102*2027.973152 102*2027.170283 
102*2027.170283 102*2026.367415 
102*2026.367415 102*2025.564546 
102*2025.564546 102*2024.761677 
102*2024.761677 102*2023.958808 
102*2023.958808 102*2023.155940 
102*2023.155940 102*2022.353071 
102*2022.353071 102*2021.550202 
102*2021.550202 102*2020.747334 
102*2020.747334 102*2019.944465 
102*2019.944465 102*2019.141596 
102*2019.141596 102*2018.338728 
102*2018.338728 102*2017.535859 
102*2017.535859 102*2016.732990 
102*2016.732990 102*2015.930121 
102*2015.930121 102*2015.127253 
102*2015.127253 102*2014.324384 
102*2014.324384 102*2013.521515 
102*2013.521515 102*2012.718647 
102*2012.718647 102*2011.915778 
102*2011.915778 102*2011.112909 
102*2011.112909 102*2010.310040 
102*2010.310040 102*2009.507172 
102*2009.507172 102*2008.704303 
102*2008.704303 102*2007.901434 
102*2007.901434 102*2007.098566 
102*2007.098566 102*2006.295697 
102*2006.295697 102*2005.492828 
102*2005.492828 102*2004.689960 
102*2004.689960 102*2003.887091 
102*2003.887091 102*2003.084222 
102*2003.084222 102*2002.281353 
102*2002.281353 102*2001.478485 
102*2001.478485 102*2000.675616 
102*2000.675616 102*1999.872747 
102*1999.872747 102*1999.069879 
102*1999.069879 102*1998.267010 
102*1998.267010 102*1997.464141 
102*1997.464141 102*1996.661272 
102*1996.661272 102*1995.858404 
102*1995.858404 102*1995.055535 
102*1995.055535 102*1994.252666 
102*1994.252666 102*1993.449798 
102*1993.449798 102*1992.646929 
102*1992.646929 102*1991.844060 
102*1991.844060 102*1991.041192 
102*1991.041192 102*1990.238323 
102*1990.238323 102*1989.435454 
102*1989.435454 102*1988.632585 
102*1988.632585 102*1987.829717 
102*2031.276021 102*2030.473152 
102*2030.473152 102*2029.670283 
102*2029.670283 102*2028.867415 
102*2028.867415 102*2028.064546 
102*2028.064546 102*2027.261677 
102*2027.261677 102*2026.458808 
102*2026.458808 102*2025.655940 
102*2025.655940 102*2024.853071 
102*2024.853071 102*2024.050202 
102*2024.050202 102*2023.247334 
102*2023.247334 102*2022.444465 
102*2022.444465 102*2021.641596 
102*2021.641596 102*2020.838728 
102*2020.838728 102*2020.035859 
102*2020.035859 102*2019.232990 
102*2019.232990 102*2018.430121 
102*2018.430121 102*2017.627253 
102*2017.627253 102*2016.824384 
102*2016.824384 102*2016.021515 
102*2016.021515 102*2015.218647 
102*2015.218647 102*2014.415778 
102*2014.415778 102*2013.612909 
102*2013.612909 102*2012.810040 
102*2012.810040 102*2012.007172 
102*2012.007172 102*2011.204303 
102*2011.204303 102*2010.401434 
102*2010.401434 102*2009.598566 
102*2009.598566 102*2008.795697 
102*2008.795697 102*2007.992828 
102*2007.992828 102*2007.189960 
102*2007.189960 102*2006.387091 
102*2006.387091 102*2005.584222 
102*2005.584222 102*2004.781353 
102*2004.781353 102*2003.978485 
102*2003.978485 102*2003.175616 
102*2003.175616 102*2002.372747 
102*2002.372747 102*2001.569879 
102*2001.569879 102*2000.767010 
102*2000.767010 102*1999.964141 
102*1999.964141 102*1999.161272 
102*1999.161272 102*1998.358404 
102*1998.358404 102*1997.555535 
102*1997.555535 102*1996.752666 
102*1996.752666 102*1995.949798 
102*1995.949798 102*1995.146929 
102*1995.146929 102*1994.344060 
102*1994.344060 102*1993.541192 
102*1993.541192 102*1992.738323 
102*1992.738323 102*1991.935454 
102*1991.935454 102*1991.132585 
102*1991.132585 102*1990.329717 
102*2031.276021 102*2030.473152 
102*2030.473152 102*2029.670283 
102*2029.670283 102*2028.867415 
102*2028.867415 102*2028.064546 
102*2028.064546 102*2027.261677 
102*2027.261677 102*2026.458808 
102*2026.458808 102*2025.655940 
102*2025.655940 102*2024.853071 
102*2024.853071 102*2024.050202 
102*2024.050202 102*2023.247334 
102*2023.247334 102*2022.444465 
102*2022.444465 102*2021.641596 
102*2021.641596 102*2020.838728 
102*2020.838728 102*2020.035859 
102*2020.035859 102*2019.232990 
102*2019.232990 102*2018.430121 
102*2018.430121 102*2017.627253 
102*2017.627253 102*2016.824384 
102*2016.824384 102*2016.021515 
102*2016.021515 102*2015.218647 
102*2015.218647 102*2014.415778 
102*2014.415778 102*2013.612909 
102*2013.612909 102*2012.810040 
102*2012.810040 102*2012.007172 
102*2012.007172 102*2011.204303 
102*2011.204303 102*2010.401434 
102*2010.401434 102*2009.598566 
102*2009.598566 102*2008.795697 
102*2008.795697 102*2007.992828 
102*2007.992828 102*2007.189960 
102*2007.189960 102*2006.387091 
102*2006.387091 102*2005.584222 
102*2005.584222 102*2004.781353 
102*2004.781353 102*2003.978485 
102*2003.978485 102*2003.175616 
102*2003.175616 102*2002.372747 
102*2002.372747 102*2001.569879 
102*2001.569879 102*2000.767010 
102*2000.767010 102*1999.964141 
102*1999.964141 102*1999.161272 
102*1999.161272 102*1998.358404 
102*1998.358404 102*1997.555535 
102*1997.555535 102*1996.752666 
102*1996.752666 102*1995.949798 
102*1995.949798 102*1995.146929 
102*1995.146929 102*1994.344060 
102*1994.344060 102*1993.541192 
102*1993.541192 102*1992.738323 
102*1992.738323 102*1991.935454 
102*1991.935454 102*1991.132585 
102*1991.132585 102*1990.329717 
102*2033.776021 102*2032.973152 
102*2032.973152 102*2032.170283 
102*2032.170283 102*2031.367415 
102*2031.367415 102*2030.564546 
102*2030.564546 102*2029.761677 
102*2029.761677 102*2028.958808 
102*2028.958808 102*2028.155940 
102*2028.155940 102*2027.353071 
102*2027.353071 102*2026.550202 
102*2026.550202 102*2025.747334 
102*2025.747334 102*2024.944465 
102*2024.944465 102*2024.141596 
102*2024.141596 102*2023.338728 
102*2023.338728 102*2022.535859 
102*2022.535859 102*2021.732990 
102*2021.732990 102*2020.930121 
102*2020.930121 102*2020.127253 
102*2020.127253 102*2019.324384 
102*2019.324384 102*2018.521515 
102*2018.521515 102*2017.718647 
102*2017.718647 102*2016.915778 
102*2016.915778 102*2016.112909 
102*2016.112909 102*2015.310040 
102*2015.310040 102*2014.507172 
102*2014.507172 102*2013.704303 
102*2013.704303 102*2012.901434 
102*2012.901434 102*2012.098566 
102*2012.098566 102*2011.295697 
102*2011.295697 102*2010.492828 
102*2010.492828 102*2009.689960 
102*2009.689960 102*2008.887091 
102*2008.887091 102*2008.084222 
102*2008.084222 102*2007.281353 
102*2007.281353 102*2006.478485 
102*2006.478485 102*2005.675616 
102*2005.675616 102*2004.872747 
102*2004.872747 102*2004.069879 
102*2004.069879 102*2003.267010 
102*2003.267010 102*2002.464141 
102*2002.464141 102*2001.661272 
102*2001.661272 102*2000.858404 
102*2000.858404 102*2000.055535 
102*2000.055535 102*1999.252666 
102*1999.252666 102*1998.449798 
102*1998.449798 102*1997.646929 
102*1997.646929 102*1996.844060 
102*1996.844060 102*1996.041192 
102*1996.041192 102*1995.238323 
102*1995.238323 102*1994.435454 
102*1994.435454 102*1993.632585 
102*1993.632585 102*1992.829717 
102*2033.776021 102*2032.973152 
102*2032.973152 102*2032.170283 
102*2032.170283 102*2031.367415 
102*2031.367415 102*2030.564546 
102*2030.564546 102*2029.761677 
102*2029.761677 102*2028.958808 
102*2028.958808 102*2028.155940 
102*2028.155940 102*2027.353071 
102*2027.353071 102*2026.550202 
102*2026.550202 102*2025.747334 
102*2025.747334 102*2024.944465 
102*2024.944465 102*2024.141596 
102*2024.141596 102*2023.338728 
102*2023.338728 102*2022.535859 
102*2022.535859 102*2021.732990 
102*2021.732990 102*2020.930121 
102*2020.930121 102*2020.127253 
102*2020.127253 102*2019.324384 
102*2019.324384 102*2018.521515 
102*2018.521515 102*2017.718647 
102*2017.718647 102*2016.915778 
102*2016.915778 102*2016.112909 
102*2016.112909 102*2015.310040 
102*2015.310040 102*2014.507172 
102*2014.507172 102*2013.704303 
102*2013.704303 102*2012.901434 
102*2012.901434 102*2012.098566 
102*2012.098566 102*2011.295697 
102*2011.295697 102*2010.492828 
102*2010.492828 102*2009.689960 
102*2009.689960 102*2008.887091 
102*2008.887091 102*2008.084222 
102*2008.084222 102*2007.281353 
102*2007.281353 102*2006.478485 
102*2006.478485 102*2005.675616 
102*2005.675616 102*2004.872747 
102*2004.872747 102*2004.069879 
102*2004.069879 102*2003.267010 
102*2003.267010 102*2002.464141 
102*2002.464141 102*2001.661272 
102*2001.661272 102*2000.858404 
102*2000.858404 102*2000.055535 
102*2000.055535 102*1999.252666 
102*1999.252666 102*1998.449798 
102*1998.449798 102*1997.646929 
102*1997.646929 102*1996.844060 
102*1996.844060 102*1996.041192 
102*1996.041192 102*1995.238323 
102*1995.238323 102*1994.435454 
102*1994.435454 102*1993.632585 
102*1993.632585 102*1992.829717 
102*2036.276021 102*2035.473152 
102*2035.473152 102*2034.670283 
102*2034.670283 102*2033.867415 
102*2033.867415 102*2033.064546 
102*2033.064546 102*2032.261677 
102*2032.261677 102*2031.458808 
102*2031.458808 102*2030.655940 
102*2030.655940 102*2029.853071 
102*2029.853071 102*2029.050202 
102*2029.050202 102*2028.247334 
102*2028.247334 102*2027.444465 
102*2027.444465 102*2026.641596 
102*2026.641596 102*2025.838728 
102*2025.838728 102*2025.035859 
102*2025.035859 102*2024.232990 
102*2024.232990 102*2023.430121 
102*2023.430121 102*2022.627253 
102*2022.627253 102*2021.824384 
102*2021.824384 102*2021.021515 
102*2021.021515 102*2020.218647 
102*2020.218647 102*2019.415778 
102*2019.415778 102*2018.612909 
102*2018.612909 102*2017.810040 
102*2017.810040 102*2017.007172 
102*2017.007172 102*2016.204303 
102*2016.204303 102*2015.401434 
102*2015.401434 102*2014.598566 
102*2014.598566 102*2013.795697 
102*2013.795697 102*2012.992828 
102*2012.992828 102*2012.189960 
102*2012.189960 102*2011.387091 
102*2011.387091 102*2010.584222 
102*2010.584222 102*2009.781353 
102*2009.781353 102*2008.978485 
102*2008.978485 102*2008.175616 
102*2008.175616 102*2007.372747 
102*2007.372747 102*2006.569879 
102*2006.569879 102*2005.767010 
102*2005.767010 102*2004.964141 
102*2004.964141 102*2004.161272 
102*2004.161272 102*2003.358404 
102*2003.358404 102*2002.555535 
102*2002.555535 102*2001.752666 
102*2001.752666 102*2000.949798 
102*2000.949798 102*2000.146929 
102*2000.146929 102*1999.344060 
102*1999.344060 102*1998.541192 
102*1998.541192 102*1997.738323 
102*1997.738323 102*1996.935454 
102*1996.935454 102*1996.132585 
102*1996.132585 102*1995.329717 
102*2036.276021 102*2035.473152 
102*2035.473152 102*2034.670283 
102*2034.670283 102*2033.867415 
102*2033.867415 102*2033.064546 
102*2033.064546 102*2032.261677 
102*2032.261677 102*2031.458808 
102*2031.458808 102*2030.655940 
102*2030.655940 102*2029.853071 
102*2029.853071 102*2029.050202 
102*2029.050202 102*2028.247334 
102*2028.247334 102*2027.444465 
102*2027.444465 102*2026.641596 
102*2026.641596 102*2025.838728 
102*2025.838728 102*2025.035859 
102*2025.035859 102*2024.232990 
102*2024.232990 102*2023.430121 
102*2023.430121 102*2022.627253 
102*2022.627253 102*2021.824384 
102*2021.824384 102*2021.021515 
102*2021.021515 102*2020.218647 
102*2020.218647 102*2019.415778 
102*2019.415778 102*2018.612909 
102*2018.612909 102*2017.810040 
102*2017.810040 102*2017.007172 
102*2017.007172 102*2016.204303 
102*2016.204303 102*2015.401434 
102*2015.401434 102*2014.598566 
102*2014.598566 102*2013.795697 
102*2013.795697 102*2012.992828 
102*2012.992828 102*2012.189960 
102*2012.189960 102*2011.387091 
102*2011.387091 102*2010.584222 
102*2010.584222 102*2009.781353 
102*2009.781353 102*2008.978485 
102*2008.978485 102*2008.175616 
102*2008.175616 102*2007.372747 
102*2007.372747 102*2006.569879 
102*2006.569879 102*2005.767010 
102*2005.767010 102*2004.964141 
102*2004.964141 102*2004.161272 
102*2004.161272 102*2003.358404 
102*2003.358404 102*2002.555535 
102*2002.555535 102*2001.752666 
102*2001.752666 102*2000.949798 
102*2000.949798 102*2000.146929 
102*2000.146929 102*1999.344060 
102*1999.344060 102*1998.541192 
102*1998.541192 102*1997.738323 
102*1997.738323 102*1996.935454 
102*1996.935454 102*1996.132585 
102*1996.132585 102*1995.329717 
102*2038.776021 102*2037.973152 
102*2037.973152 102*2037.170283 
102*2037.170283 102*2036.367415 
102*2036.367415 102*2035.564546 
102*2035.564546 102*2034.761677 
102*2034.761677 102*2033.958808 
102*2033.958808 102*2033.155940 
102*2033.155940 102*2032.353071 
102*2032.353071 102*2031.550202 
102*2031.550202 102*2030.747334 
102*2030.747334 102*2029.944465 
102*2029.944465 102*2029.141596 
102*2029.141596 102*2028.338728 
102*2028.338728 102*2027.535859 
102*2027.535859 102*2026.732990 
102*2026.732990 102*2025.930121 
102*2025.930121 102*2025.127253 
102*2025.127253 102*2024.324384 
102*2024.324384 102*2023.521515 
102*2023.521515 102*2022.718647 
102*2022.718647 102*2021.915778 
102*2021.915778 102*2021.112909 
102*2021.112909 102*2020.310040 
102*2020.310040 102*2019.507172 
102*2019.507172 102*2018.704303 
102*2018.704303 102*2017.901434 
102*2017.901434 102*2017.098566 
102*2017.098566 102*2016.295697 
102*2016.295697 102*2015.492828 
102*2015.492828 102*2014.689960 
102*2014.689960 102*2013.887091 
102*2013.887091 102*2013.084222 
102*2013.084222 102*2012.281353 
102*2012.281353 102*2011.478485 
102*2011.478485 102*2010.675616 
102*2010.675616 102*2009.872747 
102*2009.872747 102*2009.069879 
102*2009.069879 102*2008.267010 
102*2008.267010 102*2007.464141 
102*2007.464141 102*2006.661272 
102*2006.661272 102*2005.858404 
102*2005.858404 102*2005.055535 
102*2005.055535 102*2004.252666 
102*2004.252666 102*2003.449798 
102*2003.449798 102*2002.646929 
102*2002.646929 102*2001.844060 
102*2001.844060 102*2001.041192 
102*2001.041192 102*2000.238323 
102*2000.238323 102*1999.435454 
102*1999.435454 102*1998.632585 
102*1998.632585 102*1997.829717 
102*2038.776021 102*2037.973152 
102*2037.973152 102*2037.170283 
102*2037.170283 102*2036.367415 
102*2036.367415 102*2035.564546 
102*2035.564546 102*2034.761677 
102*2034.761677 102*2033.958808 
102*2033.958808 102*2033.155940 
102*2033.155940 102*2032.353071 
102*2032.353071 102*2031.550202 
102*2031.550202 102*2030.747334 
102*2030.747334 102*2029.944465 
102*2029.944465 102*2029.141596 
102*2029.141596 102*2028.338728 
102*2028.338728 102*2027.535859 
102*2027.535859 102*2026.732990 
102*2026.732990 102*2025.930121 
102*2025.930121 102*2025.127253 
102*2025.127253 102*2024.324384 
102*2024.324384 102*2023.521515 
102*2023.521515 102*2022.718647 
102*2022.718647 102*2021.915778 
102*2021.915778 102*2021.112909 
102*2021.112909 102*2020.310040 
102*2020.310040 102*2019.507172 
102*2019.507172 102*2018.704303 
102*2018.704303 102*2017.901434 
102*2017.901434 102*2017.098566 
102*2017.098566 102*2016.295697 
102*2016.295697 102*2015.492828 
102*2015.492828 102*2014.689960 
102*2014.689960 102*2013.887091 
102*2013.887091 102*2013.084222 
102*2013.084222 102*2012.281353 
102*2012.281353 102*2011.478485 
102*2011.478485 102*2010.675616 
102*2010.675616 102*2009.872747 
102*2009.872747 102*2009.069879 
102*2009.069879 102*2008.267010 
102*2008.267010 102*2007.464141 
102*2007.464141 102*2006.661272 
102*2006.661272 102*2005.858404 
102*2005.858404 102*2005.055535 
102*2005.055535 102*2004.252666 
102*2004.252666 102*2003.449798 
102*2003.449798 102*2002.646929 
102*2002.646929 102*2001.844060 
102*2001.844060 102*2001.041192 
102*2001.041192 102*2000.238323 
102*2000.238323 102*1999.435454 
102*1999.435454 102*1998.632585 
102*1998.632585 102*1997.829717 
102*2041.276021 102*2040.473152 
102*2040.473152 102*2039.670283 
102*2039.670283 102*2038.867415 
102*2038.867415 102*2038.064546 
102*2038.064546 102*2037.261677 
102*2037.261677 102*2036.458808 
102*2036.458808 102*2035.655940 
102*2035.655940 102*2034.853071 
102*2034.853071 102*2034.050202 
102*2034.050202 102*2033.247334 
102*2033.247334 102*2032.444465 
102*2032.444465 102*2031.641596 
102*2031.641596 102*2030.838728 
102*2030.838728 102*2030.035859 
102*2030.035859 102*2029.232990 
102*2029.232990 102*2028.430121 
102*2028.430121 102*2027.627253 
102*2027.627253 102*2026.824384 
102*2026.824384 102*2026.021515 
102*2026.021515 102*2025.218647 
102*2025.218647 102*2024.415778 
102*2024.415778 102*2023.612909 
102*2023.612909 102*2022.810040 
102*2022.810040 102*2022.007172 
102*2022.007172 102*2021.204303 
102*2021.204303 102*2020.401434 
102*2020.401434 102*2019.598566 
102*2019.598566 102*2018.795697 
102*2018.795697 102*2017.992828 
102*2017.992828 102*2017.189960 
102*2017.189960 102*2016.387091 
102*2016.387091 102*2015.584222 
102*2015.584222 102*2014.781353 
102*2014.781353 102*2013.978485 
102*2013.978485 102*2013.175616 
102*2013.175616 102*2012.372747 
102*2012.372747 102*2011.569879 
102*2011.569879 102*2010.767010 
102*2010.767010 102*2009.964141 
102*2009.964141 102*2009.161272 
102*2009.161272 102*2008.358404 
102*2008.358404 102*2007.555535 
102*2007.555535 102*2006.752666 
102*2006.752666 102*2005.949798 
102*2005.949798 102*2005.146929 
102*2005.146929 102*2004.344060 
102*2004.344060 102*2003.541192 
102*2003.541192 102*2002.738323 
102*2002.738323 102*2001.935454 
102*2001.935454 102*2001.132585 
102*2001.132585 102*2000.329717 
102*2041.276021 102*2040.473152 
102*2040.473152 102*2039.670283 
102*2039.670283 102*2038.867415 
102*2038.867415 102*2038.064546 
102*2038.064546 102*2037.261677 
102*2037.261677 102*2036.458808 
102*2036.458808 102*2035.655940 
102*2035.655940 102*2034.853071 
102*2034.853071 102*2034.050202 
102*2034.050202 102*2033.247334 
102*2033.247334 102*2032.444465 
102*2032.444465 102*2031.641596 
102*2031.641596 102*2030.838728 
102*2030.838728 102*2030.035859 
102*2030.035859 102*2029.232990 
102*2029.232990 102*2028.430121 
102*2028.430121 102*2027.627253 
102*2027.627253 102*2026.824384 
102*2026.824384 102*2026.021515 
102*2026.021515 102*2025.218647 
102*2025.218647 102*2024.415778 
102*2024.415778 102*2023.612909 
102*2023.612909 102*2022.810040 
102*2022.810040 102*2022.007172 
102*2022.007172 102*2021.204303 
102*2021.204303 102*2020.401434 
102*2020.401434 102*2019.598566 
102*2019.598566 102*2018.795697 
102*2018.795697 102*2017.992828 
102*2017.992828 102*2017.189960 
102*2017.189960 102*2016.387091 
102*2016.387091 102*2015.584222 
102*2015.584222 102*2014.781353 
102*2014.781353 102*2013.978485 
102*2013.978485 102*2013.175616 
102*2013.175616 102*2012.372747 
102*2012.372747 102*2011.569879 
102*2011.569879 102*2010.767010 
102*2010.767010 102*2009.964141 
102*2009.964141 102*2009.161272 
102*2009.161272 102*2008.358404 
102*2008.358404 102*2007.555535 
102*2007.555535 102*2006.752666 
102*2006.752666 102*2005.949798 
102*2005.949798 102*2005.146929 
102*2005.146929 102*2004.344060 
102*2004.344060 102*2003.541192 
102*2003.541192 102*2002.738323 
102*2002.738323 102*2001.935454 
102*2001.935454 102*2001.132585 
102*2001.132585 102*2000.329717 
102*2043.776021 102*2042.973152 
102*2042.973152 102*2042.170283 
102*2042.170283 102*2041.367415 
102*2041.367415 102*2040.564546 
102*2040.564546 102*2039.761677 
102*2039.761677 102*2038.958808 
102*2038.958808 102*2038.155940 
102*2038.155940 102*2037.353071 
102*2037.353071 102*2036.550202 
102*2036.550202 102*2035.747334 
102*2035.747334 102*2034.944465 
102*2034.944465 102*2034.141596 
102*2034.141596 102*2033.338728 
102*2033.338728 102*2032.535859 
102*2032.535859 102*2031.732990 
102*2031.732990 102*2030.930121 
102*2030.930121 102*2030.127253 
102*2030.127253 102*2029.324384 
102*2029.324384 102*2028.521515 
102*2028.521515 102*2027.718647 
102*2027.718647 102*2026.915778 
102*2026.915778 102*2026.112909 
102*2026.112909 102*2025.310040 
102*2025.310040 102*2024.507172 
102*2024.507172 102*2023.704303 
102*2023.704303 102*2022.901434 
102*2022.901434 102*2022.098566 
102*2022.098566 102*2021.295697 
102*2021.295697 102*2020.492828 
102*2020.492828 102*2019.689960 
102*2019.689960 102*2018.887091 
102*2018.887091 102*2018.084222 
102*2018.084222 102*2017.281353 
102*2017.281353 102*2016.478485 
102*2016.478485 102*2015.675616 
102*2015.675616 102*2014.872747 
102*2014.872747 102*2014.069879 
102*2014.069879 102*2013.267010 
102*2013.267010 102*2012.464141 
102*2012.464141 102*2011.661272 
102*2011.661272 102*2010.858404 