ZCORN
102*2064.764605 102*2062.320658 
102*2062.320658 102*2059.876710 
102*2059.876710 102*2057.432763 
102*2057.432763 102*2054.988816 
102*2054.988816 102*2052.544868 
102*2052.544868 102*2050.100921 
102*2050.100921 102*2047.656973 
102*2047.656973 102*2045.213026 
102*2045.213026 102*2042.769079 
102*2042.769079 102*2040.325131 
102*2040.325131 102*2037.881184 
102*2037.881184 102*2035.437237 
102*2035.437237 102*2032.993289 
102*2032.993289 102*2030.549342 
102*2030.549342 102*2028.105395 
102*2028.105395 102*2025.661447 
102*2025.661447 102*2023.217500 
102*2023.217500 102*2020.773553 
102*2020.773553 102*2018.329605 
102*2018.329605 102*2015.885658 
102*2015.885658 102*2013.441710 
102*2013.441710 102*2010.997763 
102*2010.997763 102*2008.553816 
102*2008.553816 102*2006.109868 
102*2006.109868 102*2003.665921 
102*2003.665921 102*2001.221974 
102*2001.221974 102*1998.778026 
102*1998.778026 102*1996.334079 
102*1996.334079 102*1993.890132 
102*1993.890132 102*1991.446184 
102*1991.446184 102*1989.002237 
102*1989.002237 102*1986.558290 
102*1986.558290 102*1984.114342 
102*1984.114342 102*1981.670395 
102*1981.670395 102*1979.226447 
102*1979.226447 102*1976.782500 
102*1976.782500 102*1974.338553 
102*1974.338553 102*1971.894605 
102*1971.894605 102*1969.450658 
102*1969.450658 102*1967.006711 
102*1967.006711 102*1964.562763 
102*1964.562763 102*1962.118816 
102*1962.118816 102*1959.674869 
102*1959.674869 102*1957.230921 
102*1957.230921 102*1954.786974 
102*1954.786974 102*1952.343027 
102*1952.343027 102*1949.899079 
102*1949.899079 102*1947.455132 
102*1947.455132 102*1945.011184 
102*1945.011184 102*1942.567237 
102*1942.567237 102*1940.123290 
102*2067.264605 102*2064.820658 
102*2064.820658 102*2062.376710 
102*2062.376710 102*2059.932763 
102*2059.932763 102*2057.488816 
102*2057.488816 102*2055.044868 
102*2055.044868 102*2052.600921 
102*2052.600921 102*2050.156973 
102*2050.156973 102*2047.713026 
102*2047.713026 102*2045.269079 
102*2045.269079 102*2042.825131 
102*2042.825131 102*2040.381184 
102*2040.381184 102*2037.937237 
102*2037.937237 102*2035.493289 
102*2035.493289 102*2033.049342 
102*2033.049342 102*2030.605395 
102*2030.605395 102*2028.161447 
102*2028.161447 102*2025.717500 
102*2025.717500 102*2023.273553 
102*2023.273553 102*2020.829605 
102*2020.829605 102*2018.385658 
102*2018.385658 102*2015.941710 
102*2015.941710 102*2013.497763 
102*2013.497763 102*2011.053816 
102*2011.053816 102*2008.609868 
102*2008.609868 102*2006.165921 
102*2006.165921 102*2003.721974 
102*2003.721974 102*2001.278026 
102*2001.278026 102*1998.834079 
102*1998.834079 102*1996.390132 
102*1996.390132 102*1993.946184 
102*1993.946184 102*1991.502237 
102*1991.502237 102*1989.058290 
102*1989.058290 102*1986.614342 
102*1986.614342 102*1984.170395 
102*1984.170395 102*1981.726447 
102*1981.726447 102*1979.282500 
102*1979.282500 102*1976.838553 
102*1976.838553 102*1974.394605 
102*1974.394605 102*1971.950658 
102*1971.950658 102*1969.506711 
102*1969.506711 102*1967.062763 
102*1967.062763 102*1964.618816 
102*1964.618816 102*1962.174869 
102*1962.174869 102*1959.730921 
102*1959.730921 102*1957.286974 
102*1957.286974 102*1954.843027 
102*1954.843027 102*1952.399079 
102*1952.399079 102*1949.955132 
102*1949.955132 102*1947.511184 
102*1947.511184 102*1945.067237 
102*1945.067237 102*1942.623290 
102*2067.264605 102*2064.820658 
102*2064.820658 102*2062.376710 
102*2062.376710 102*2059.932763 
102*2059.932763 102*2057.488816 
102*2057.488816 102*2055.044868 
102*2055.044868 102*2052.600921 
102*2052.600921 102*2050.156973 
102*2050.156973 102*2047.713026 
102*2047.713026 102*2045.269079 
102*2045.269079 102*2042.825131 
102*2042.825131 102*2040.381184 
102*2040.381184 102*2037.937237 
102*2037.937237 102*2035.493289 
102*2035.493289 102*2033.049342 
102*2033.049342 102*2030.605395 
102*2030.605395 102*2028.161447 
102*2028.161447 102*2025.717500 
102*2025.717500 102*2023.273553 
102*2023.273553 102*2020.829605 
102*2020.829605 102*2018.385658 
102*2018.385658 102*2015.941710 
102*2015.941710 102*2013.497763 
102*2013.497763 102*2011.053816 
102*2011.053816 102*2008.609868 
102*2008.609868 102*2006.165921 
102*2006.165921 102*2003.721974 
102*2003.721974 102*2001.278026 
102*2001.278026 102*1998.834079 
102*1998.834079 102*1996.390132 
102*1996.390132 102*1993.946184 
102*1993.946184 102*1991.502237 
102*1991.502237 102*1989.058290 
102*1989.058290 102*1986.614342 
102*1986.614342 102*1984.170395 
102*1984.170395 102*1981.726447 
102*1981.726447 102*1979.282500 
102*1979.282500 102*1976.838553 
102*1976.838553 102*1974.394605 
102*1974.394605 102*1971.950658 
102*1971.950658 102*1969.506711 
102*1969.506711 102*1967.062763 
102*1967.062763 102*1964.618816 
102*1964.618816 102*1962.174869 
102*1962.174869 102*1959.730921 
102*1959.730921 102*1957.286974 
102*1957.286974 102*1954.843027 
102*1954.843027 102*1952.399079 
102*1952.399079 102*1949.955132 
102*1949.955132 102*1947.511184 
102*1947.511184 102*1945.067237 
102*1945.067237 102*1942.623290 
102*2069.764605 102*2067.320658 
102*2067.320658 102*2064.876710 
102*2064.876710 102*2062.432763 
102*2062.432763 102*2059.988816 
102*2059.988816 102*2057.544868 
102*2057.544868 102*2055.100921 
102*2055.100921 102*2052.656973 
102*2052.656973 102*2050.213026 
102*2050.213026 102*2047.769079 
102*2047.769079 102*2045.325131 
102*2045.325131 102*2042.881184 
102*2042.881184 102*2040.437237 
102*2040.437237 102*2037.993289 
102*2037.993289 102*2035.549342 
102*2035.549342 102*2033.105395 
102*2033.105395 102*2030.661447 
102*2030.661447 102*2028.217500 
102*2028.217500 102*2025.773553 
102*2025.773553 102*2023.329605 
102*2023.329605 102*2020.885658 
102*2020.885658 102*2018.441710 
102*2018.441710 102*2015.997763 
102*2015.997763 102*2013.553816 
102*2013.553816 102*2011.109868 
102*2011.109868 102*2008.665921 
102*2008.665921 102*2006.221974 
102*2006.221974 102*2003.778026 
102*2003.778026 102*2001.334079 
102*2001.334079 102*1998.890132 
102*1998.890132 102*1996.446184 
102*1996.446184 102*1994.002237 
102*1994.002237 102*1991.558290 
102*1991.558290 102*1989.114342 
102*1989.114342 102*1986.670395 
102*1986.670395 102*1984.226447 
102*1984.226447 102*1981.782500 
102*1981.782500 102*1979.338553 
102*1979.338553 102*1976.894605 
102*1976.894605 102*1974.450658 
102*1974.450658 102*1972.006711 
102*1972.006711 102*1969.562763 
102*1969.562763 102*1967.118816 
102*1967.118816 102*1964.674869 
102*1964.674869 102*1962.230921 
102*1962.230921 102*1959.786974 
102*1959.786974 102*1957.343027 
102*1957.343027 102*1954.899079 
102*1954.899079 102*1952.455132 
102*1952.455132 102*1950.011184 
102*1950.011184 102*1947.567237 
102*1947.567237 102*1945.123290 
102*2069.764605 102*2067.320658 
102*2067.320658 102*2064.876710 
102*2064.876710 102*2062.432763 
102*2062.432763 102*2059.988816 
102*2059.988816 102*2057.544868 
102*2057.544868 102*2055.100921 
102*2055.100921 102*2052.656973 
102*2052.656973 102*2050.213026 
102*2050.213026 102*2047.769079 
102*2047.769079 102*2045.325131 
102*2045.325131 102*2042.881184 
102*2042.881184 102*2040.437237 
102*2040.437237 102*2037.993289 
102*2037.993289 102*2035.549342 
102*2035.549342 102*2033.105395 
102*2033.105395 102*2030.661447 
102*2030.661447 102*2028.217500 
102*2028.217500 102*2025.773553 
102*2025.773553 102*2023.329605 
102*2023.329605 102*2020.885658 
102*2020.885658 102*2018.441710 
102*2018.441710 102*2015.997763 
102*2015.997763 102*2013.553816 
102*2013.553816 102*2011.109868 
102*2011.109868 102*2008.665921 
102*2008.665921 102*2006.221974 
102*2006.221974 102*2003.778026 
102*2003.778026 102*2001.334079 
102*2001.334079 102*1998.890132 
102*1998.890132 102*1996.446184 
102*1996.446184 102*1994.002237 
102*1994.002237 102*1991.558290 
102*1991.558290 102*1989.114342 
102*1989.114342 102*1986.670395 
102*1986.670395 102*1984.226447 
102*1984.226447 102*1981.782500 
102*1981.782500 102*1979.338553 
102*1979.338553 102*1976.894605 
102*1976.894605 102*1974.450658 
102*1974.450658 102*1972.006711 
102*1972.006711 102*1969.562763 
102*1969.562763 102*1967.118816 
102*1967.118816 102*1964.674869 
102*1964.674869 102*1962.230921 
102*1962.230921 102*1959.786974 
102*1959.786974 102*1957.343027 
102*1957.343027 102*1954.899079 
102*1954.899079 102*1952.455132 
102*1952.455132 102*1950.011184 
102*1950.011184 102*1947.567237 
102*1947.567237 102*1945.123290 
102*2072.264605 102*2069.820658 
102*2069.820658 102*2067.376710 
102*2067.376710 102*2064.932763 
102*2064.932763 102*2062.488816 
102*2062.488816 102*2060.044868 
102*2060.044868 102*2057.600921 
102*2057.600921 102*2055.156973 
102*2055.156973 102*2052.713026 
102*2052.713026 102*2050.269079 
102*2050.269079 102*2047.825131 
102*2047.825131 102*2045.381184 
102*2045.381184 102*2042.937237 
102*2042.937237 102*2040.493289 
102*2040.493289 102*2038.049342 
102*2038.049342 102*2035.605395 
102*2035.605395 102*2033.161447 
102*2033.161447 102*2030.717500 
102*2030.717500 102*2028.273553 
102*2028.273553 102*2025.829605 
102*2025.829605 102*2023.385658 
102*2023.385658 102*2020.941710 
102*2020.941710 102*2018.497763 
102*2018.497763 102*2016.053816 
102*2016.053816 102*2013.609868 
102*2013.609868 102*2011.165921 
102*2011.165921 102*2008.721974 
102*2008.721974 102*2006.278026 
102*2006.278026 102*2003.834079 
102*2003.834079 102*2001.390132 
102*2001.390132 102*1998.946184 
102*1998.946184 102*1996.502237 
102*1996.502237 102*1994.058290 
102*1994.058290 102*1991.614342 
102*1991.614342 102*1989.170395 
102*1989.170395 102*1986.726447 
102*1986.726447 102*1984.282500 
102*1984.282500 102*1981.838553 
102*1981.838553 102*1979.394605 
102*1979.394605 102*1976.950658 
102*1976.950658 102*1974.506711 
102*1974.506711 102*1972.062763 
102*1972.062763 102*1969.618816 
102*1969.618816 102*1967.174869 
102*1967.174869 102*1964.730921 
102*1964.730921 102*1962.286974 
102*1962.286974 102*1959.843027 
102*1959.843027 102*1957.399079 
102*1957.399079 102*1954.955132 
102*1954.955132 102*1952.511184 
102*1952.511184 102*1950.067237 
102*1950.067237 102*1947.623290 
102*2072.264605 102*2069.820658 
102*2069.820658 102*2067.376710 
102*2067.376710 102*2064.932763 
102*2064.932763 102*2062.488816 
102*2062.488816 102*2060.044868 
102*2060.044868 102*2057.600921 
102*2057.600921 102*2055.156973 
102*2055.156973 102*2052.713026 
102*2052.713026 102*2050.269079 
102*2050.269079 102*2047.825131 
102*2047.825131 102*2045.381184 
102*2045.381184 102*2042.937237 
102*2042.937237 102*2040.493289 
102*2040.493289 102*2038.049342 
102*2038.049342 102*2035.605395 
102*2035.605395 102*2033.161447 
102*2033.161447 102*2030.717500 
102*2030.717500 102*2028.273553 
102*2028.273553 102*2025.829605 
102*2025.829605 102*2023.385658 
102*2023.385658 102*2020.941710 
102*2020.941710 102*2018.497763 
102*2018.497763 102*2016.053816 
102*2016.053816 102*2013.609868 
102*2013.609868 102*2011.165921 
102*2011.165921 102*2008.721974 
102*2008.721974 102*2006.278026 
102*2006.278026 102*2003.834079 
102*2003.834079 102*2001.390132 
102*2001.390132 102*1998.946184 
102*1998.946184 102*1996.502237 
102*1996.502237 102*1994.058290 
102*1994.058290 102*1991.614342 
102*1991.614342 102*1989.170395 
102*1989.170395 102*1986.726447 
102*1986.726447 102*1984.282500 
102*1984.282500 102*1981.838553 
102*1981.838553 102*1979.394605 
102*1979.394605 102*1976.950658 
102*1976.950658 102*1974.506711 
102*1974.506711 102*1972.062763 
102*1972.062763 102*1969.618816 
102*1969.618816 102*1967.174869 
102*1967.174869 102*1964.730921 
102*1964.730921 102*1962.286974 
102*1962.286974 102*1959.843027 
102*1959.843027 102*1957.399079 
102*1957.399079 102*1954.955132 
102*1954.955132 102*1952.511184 
102*1952.511184 102*1950.067237 
102*1950.067237 102*1947.623290 
102*2074.764605 102*2072.320658 
102*2072.320658 102*2069.876710 
102*2069.876710 102*2067.432763 
102*2067.432763 102*2064.988816 
102*2064.988816 102*2062.544868 
102*2062.544868 102*2060.100921 
102*2060.100921 102*2057.656973 
102*2057.656973 102*2055.213026 
102*2055.213026 102*2052.769079 
102*2052.769079 102*2050.325131 
102*2050.325131 102*2047.881184 
102*2047.881184 102*2045.437237 
102*2045.437237 102*2042.993289 
102*2042.993289 102*2040.549342 
102*2040.549342 102*2038.105395 
102*2038.105395 102*2035.661447 
102*2035.661447 102*2033.217500 
102*2033.217500 102*2030.773553 
102*2030.773553 102*2028.329605 
102*2028.329605 102*2025.885658 
102*2025.885658 102*2023.441710 
102*2023.441710 102*2020.997763 
102*2020.997763 102*2018.553816 
102*2018.553816 102*2016.109868 
102*2016.109868 102*2013.665921 
102*2013.665921 102*2011.221974 
102*2011.221974 102*2008.778026 
102*2008.778026 102*2006.334079 
102*2006.334079 102*2003.890132 
102*2003.890132 102*2001.446184 
102*2001.446184 102*1999.002237 
102*1999.002237 102*1996.558290 
102*1996.558290 102*1994.114342 
102*1994.114342 102*1991.670395 
102*1991.670395 102*1989.226447 
102*1989.226447 102*1986.782500 
102*1986.782500 102*1984.338553 
102*1984.338553 102*1981.894605 
102*1981.894605 102*1979.450658 
102*1979.450658 102*1977.006711 
102*1977.006711 102*1974.562763 
102*1974.562763 102*1972.118816 
102*1972.118816 102*1969.674869 
102*1969.674869 102*1967.230921 
102*1967.230921 102*1964.786974 
102*1964.786974 102*1962.343027 
102*1962.343027 102*1959.899079 
102*1959.899079 102*1957.455132 
102*1957.455132 102*1955.011184 
102*1955.011184 102*1952.567237 
102*1952.567237 102*1950.123290 
102*2074.764605 102*2072.320658 
102*2072.320658 102*2069.876710 
102*2069.876710 102*2067.432763 
102*2067.432763 102*2064.988816 
102*2064.988816 102*2062.544868 
102*2062.544868 102*2060.100921 
102*2060.100921 102*2057.656973 
102*2057.656973 102*2055.213026 
102*2055.213026 102*2052.769079 
102*2052.769079 102*2050.325131 
102*2050.325131 102*2047.881184 
102*2047.881184 102*2045.437237 
102*2045.437237 102*2042.993289 
102*2042.993289 102*2040.549342 
102*2040.549342 102*2038.105395 
102*2038.105395 102*2035.661447 
102*2035.661447 102*2033.217500 
102*2033.217500 102*2030.773553 
102*2030.773553 102*2028.329605 
102*2028.329605 102*2025.885658 
102*2025.885658 102*2023.441710 
102*2023.441710 102*2020.997763 
102*2020.997763 102*2018.553816 
102*2018.553816 102*2016.109868 
102*2016.109868 102*2013.665921 
102*2013.665921 102*2011.221974 
102*2011.221974 102*2008.778026 
102*2008.778026 102*2006.334079 
102*2006.334079 102*2003.890132 
102*2003.890132 102*2001.446184 
102*2001.446184 102*1999.002237 
102*1999.002237 102*1996.558290 
102*1996.558290 102*1994.114342 
102*1994.114342 102*1991.670395 
102*1991.670395 102*1989.226447 
102*1989.226447 102*1986.782500 
102*1986.782500 102*1984.338553 
102*1984.338553 102*1981.894605 
102*1981.894605 102*1979.450658 
102*1979.450658 102*1977.006711 
102*1977.006711 102*1974.562763 
102*1974.562763 102*1972.118816 
102*1972.118816 102*1969.674869 
102*1969.674869 102*1967.230921 
102*1967.230921 102*1964.786974 
102*1964.786974 102*1962.343027 
102*1962.343027 102*1959.899079 
102*1959.899079 102*1957.455132 
102*1957.455132 102*1955.011184 
102*1955.011184 102*1952.567237 
102*1952.567237 102*1950.123290 
102*2077.264605 102*2074.820658 
102*2074.820658 102*2072.376710 
102*2072.376710 102*2069.932763 
102*2069.932763 102*2067.488816 
102*2067.488816 102*2065.044868 
102*2065.044868 102*2062.600921 
102*2062.600921 102*2060.156973 
102*2060.156973 102*2057.713026 
102*2057.713026 102*2055.269079 
102*2055.269079 102*2052.825131 
102*2052.825131 102*2050.381184 
102*2050.381184 102*2047.937237 
102*2047.937237 102*2045.493289 
102*2045.493289 102*2043.049342 
102*2043.049342 102*2040.605395 
102*2040.605395 102*2038.161447 
102*2038.161447 102*2035.717500 
102*2035.717500 102*2033.273553 
102*2033.273553 102*2030.829605 
102*2030.829605 102*2028.385658 
102*2028.385658 102*2025.941710 
102*2025.941710 102*2023.497763 
102*2023.497763 102*2021.053816 
102*2021.053816 102*2018.609868 
102*2018.609868 102*2016.165921 
102*2016.165921 102*2013.721974 
102*2013.721974 102*2011.278026 
102*2011.278026 102*2008.834079 
102*2008.834079 102*2006.390132 
102*2006.390132 102*2003.946184 
102*2003.946184 102*2001.502237 
102*2001.502237 102*1999.058290 
102*1999.058290 102*1996.614342 
102*1996.614342 102*1994.170395 
102*1994.170395 102*1991.726447 
102*1991.726447 102*1989.282500 
102*1989.282500 102*1986.838553 
102*1986.838553 102*1984.394605 
102*1984.394605 102*1981.950658 
102*1981.950658 102*1979.506711 
102*1979.506711 102*1977.062763 
102*1977.062763 102*1974.618816 
102*1974.618816 102*1972.174869 
102*1972.174869 102*1969.730921 
102*1969.730921 102*1967.286974 
102*1967.286974 102*1964.843027 
102*1964.843027 102*1962.399079 
102*1962.399079 102*1959.955132 
102*1959.955132 102*1957.511184 
102*1957.511184 102*1955.067237 
102*1955.067237 102*1952.623290 
102*2077.264605 102*2074.820658 
102*2074.820658 102*2072.376710 
102*2072.376710 102*2069.932763 
102*2069.932763 102*2067.488816 
102*2067.488816 102*2065.044868 
102*2065.044868 102*2062.600921 
102*2062.600921 102*2060.156973 
102*2060.156973 102*2057.713026 
102*2057.713026 102*2055.269079 
102*2055.269079 102*2052.825131 
102*2052.825131 102*2050.381184 
102*2050.381184 102*2047.937237 
102*2047.937237 102*2045.493289 
102*2045.493289 102*2043.049342 
102*2043.049342 102*2040.605395 
102*2040.605395 102*2038.161447 
102*2038.161447 102*2035.717500 
102*2035.717500 102*2033.273553 
102*2033.273553 102*2030.829605 
102*2030.829605 102*2028.385658 
102*2028.385658 102*2025.941710 
102*2025.941710 102*2023.497763 
102*2023.497763 102*2021.053816 
102*2021.053816 102*2018.609868 
102*2018.609868 102*2016.165921 
102*2016.165921 102*2013.721974 
102*2013.721974 102*2011.278026 
102*2011.278026 102*2008.834079 
102*2008.834079 102*2006.390132 
102*2006.390132 102*2003.946184 
102*2003.946184 102*2001.502237 
102*2001.502237 102*1999.058290 
102*1999.058290 102*1996.614342 
102*1996.614342 102*1994.170395 
102*1994.170395 102*1991.726447 
102*1991.726447 102*1989.282500 
102*1989.282500 102*1986.838553 
102*1986.838553 102*1984.394605 
102*1984.394605 102*1981.950658 
102*1981.950658 102*1979.506711 
102*1979.506711 102*1977.062763 
102*1977.062763 102*1974.618816 
102*1974.618816 102*1972.174869 
102*1972.174869 102*1969.730921 
102*1969.730921 102*1967.286974 
102*1967.286974 102*1964.843027 
102*1964.843027 102*1962.399079 
102*1962.399079 102*1959.955132 
102*1959.955132 102*1957.511184 
102*1957.511184 102*1955.067237 
102*1955.067237 102*1952.623290 
102*2079.764605 102*2077.320658 
102*2077.320658 102*2074.876710 
102*2074.876710 102*2072.432763 
102*2072.432763 102*2069.988816 
102*2069.988816 102*2067.544868 
102*2067.544868 102*2065.100921 
102*2065.100921 102*2062.656973 
102*2062.656973 102*2060.213026 
102*2060.213026 102*2057.769079 
102*2057.769079 102*2055.325131 
102*2055.325131 102*2052.881184 
102*2052.881184 102*2050.437237 
102*2050.437237 102*2047.993289 
102*2047.993289 102*2045.549342 
102*2045.549342 102*2043.105395 
102*2043.105395 102*2040.661447 
102*2040.661447 102*2038.217500 
102*2038.217500 102*2035.773553 
102*2035.773553 102*2033.329605 
102*2033.329605 102*2030.885658 
102*2030.885658 102*2028.441710 
102*2028.441710 102*2025.997763 
102*2025.997763 102*2023.553816 
102*2023.553816 102*2021.109868 
102*2021.109868 102*2018.665921 
102*2018.665921 102*2016.221974 
102*2016.221974 102*2013.778026 
102*2013.778026 102*2011.334079 
102*2011.334079 102*2008.890132 
102*2008.890132 102*2006.446184 
102*2006.446184 102*2004.002237 
102*2004.002237 102*2001.558290 
102*2001.558290 102*1999.114342 
102*1999.114342 102*1996.670395 
102*1996.670395 102*1994.226447 
102*1994.226447 102*1991.782500 
102*1991.782500 102*1989.338553 
102*1989.338553 102*1986.894605 
102*1986.894605 102*1984.450658 
102*1984.450658 102*1982.006711 
102*1982.006711 102*1979.562763 
102*1979.562763 102*1977.118816 
102*1977.118816 102*1974.674869 
102*1974.674869 102*1972.230921 
102*1972.230921 102*1969.786974 
102*1969.786974 102*1967.343027 
102*1967.343027 102*1964.899079 
102*1964.899079 102*1962.455132 
102*1962.455132 102*1960.011184 
102*1960.011184 102*1957.567237 
102*1957.567237 102*1955.123290 
102*2079.764605 102*2077.320658 
102*2077.320658 102*2074.876710 
102*2074.876710 102*2072.432763 
102*2072.432763 102*2069.988816 
102*2069.988816 102*2067.544868 
102*2067.544868 102*2065.100921 
102*2065.100921 102*2062.656973 
102*2062.656973 102*2060.213026 
102*2060.213026 102*2057.769079 
102*2057.769079 102*2055.325131 
102*2055.325131 102*2052.881184 
102*2052.881184 102*2050.437237 
102*2050.437237 102*2047.993289 
102*2047.993289 102*2045.549342 
102*2045.549342 102*2043.105395 
102*2043.105395 102*2040.661447 
102*2040.661447 102*2038.217500 
102*2038.217500 102*2035.773553 
102*2035.773553 102*2033.329605 
102*2033.329605 102*2030.885658 
102*2030.885658 102*2028.441710 
102*2028.441710 102*2025.997763 
102*2025.997763 102*2023.553816 
102*2023.553816 102*2021.109868 
102*2021.109868 102*2018.665921 
102*2018.665921 102*2016.221974 
102*2016.221974 102*2013.778026 
102*2013.778026 102*2011.334079 
102*2011.334079 102*2008.890132 
102*2008.890132 102*2006.446184 
102*2006.446184 102*2004.002237 
102*2004.002237 102*2001.558290 
102*2001.558290 102*1999.114342 
102*1999.114342 102*1996.670395 
102*1996.670395 102*1994.226447 
102*1994.226447 102*1991.782500 
102*1991.782500 102*1989.338553 
102*1989.338553 102*1986.894605 
102*1986.894605 102*1984.450658 
102*1984.450658 102*1982.006711 
102*1982.006711 102*1979.562763 
102*1979.562763 102*1977.118816 
102*1977.118816 102*1974.674869 
102*1974.674869 102*1972.230921 
102*1972.230921 102*1969.786974 
102*1969.786974 102*1967.343027 
102*1967.343027 102*1964.899079 
102*1964.899079 102*1962.455132 
102*1962.455132 102*1960.011184 
102*1960.011184 102*1957.567237 
102*1957.567237 102*1955.123290 
102*2082.264605 102*2079.820658 
102*2079.820658 102*2077.376710 
102*2077.376710 102*2074.932763 
102*2074.932763 102*2072.488816 
102*2072.488816 102*2070.044868 
102*2070.044868 102*2067.600921 
102*2067.600921 102*2065.156973 
102*2065.156973 102*2062.713026 
102*2062.713026 102*2060.269079 
102*2060.269079 102*2057.825131 
102*2057.825131 102*2055.381184 
102*2055.381184 102*2052.937237 
102*2052.937237 102*2050.493289 
102*2050.493289 102*2048.049342 
102*2048.049342 102*2045.605395 
102*2045.605395 102*2043.161447 
102*2043.161447 102*2040.717500 
102*2040.717500 102*2038.273553 
102*2038.273553 102*2035.829605 
102*2035.829605 102*2033.385658 
102*2033.385658 102*2030.941710 
102*2030.941710 102*2028.497763 
102*2028.497763 102*2026.053816 
102*2026.053816 102*2023.609868 
102*2023.609868 102*2021.165921 
102*2021.165921 102*2018.721974 
102*2018.721974 102*2016.278026 
102*2016.278026 102*2013.834079 
102*2013.834079 102*2011.390132 
102*2011.390132 102*2008.946184 
102*2008.946184 102*2006.502237 
102*2006.502237 102*2004.058290 
102*2004.058290 102*2001.614342 
102*2001.614342 102*1999.170395 
102*1999.170395 102*1996.726447 
102*1996.726447 102*1994.282500 
102*1994.282500 102*1991.838553 
102*1991.838553 102*1989.394605 
102*1989.394605 102*1986.950658 
102*1986.950658 102*1984.506711 
102*1984.506711 102*1982.062763 
102*1982.062763 102*1979.618816 
102*1979.618816 102*1977.174869 
102*1977.174869 102*1974.730921 
102*1974.730921 102*1972.286974 
102*1972.286974 102*1969.843027 
102*1969.843027 102*1967.399079 
102*1967.399079 102*1964.955132 
102*1964.955132 102*1962.511184 
102*1962.511184 102*1960.067237 
102*1960.067237 102*1957.623290 
102*2082.264605 102*2079.820658 
102*2079.820658 102*2077.376710 
102*2077.376710 102*2074.932763 
102*2074.932763 102*2072.488816 
102*2072.488816 102*2070.044868 
102*2070.044868 102*2067.600921 
102*2067.600921 102*2065.156973 
102*2065.156973 102*2062.713026 
102*2062.713026 102*2060.269079 
102*2060.269079 102*2057.825131 
102*2057.825131 102*2055.381184 
102*2055.381184 102*2052.937237 
102*2052.937237 102*2050.493289 
102*2050.493289 102*2048.049342 
102*2048.049342 102*2045.605395 
102*2045.605395 102*2043.161447 
102*2043.161447 102*2040.717500 
102*2040.717500 102*2038.273553 
102*2038.273553 102*2035.829605 
102*2035.829605 102*2033.385658 
102*2033.385658 102*2030.941710 
102*2030.941710 102*2028.497763 
102*2028.497763 102*2026.053816 
102*2026.053816 102*2023.609868 
102*2023.609868 102*2021.165921 
102*2021.165921 102*2018.721974 
102*2018.721974 102*2016.278026 
102*2016.278026 102*2013.834079 
102*2013.834079 102*2011.390132 
102*2011.390132 102*2008.946184 
102*2008.946184 102*2006.502237 
102*2006.502237 102*2004.058290 
102*2004.058290 102*2001.614342 
102*2001.614342 102*1999.170395 
102*1999.170395 102*1996.726447 
102*1996.726447 102*1994.282500 
102*1994.282500 102*1991.838553 
102*1991.838553 102*1989.394605 
102*1989.394605 102*1986.950658 
102*1986.950658 102*1984.506711 
102*1984.506711 102*1982.062763 
102*1982.062763 102*1979.618816 
102*1979.618816 102*1977.174869 
102*1977.174869 102*1974.730921 
102*1974.730921 102*1972.286974 
102*1972.286974 102*1969.843027 
102*1969.843027 102*1967.399079 
102*1967.399079 102*1964.955132 
102*1964.955132 102*1962.511184 
102*1962.511184 102*1960.067237 
102*1960.067237 102*1957.623290 
102*2084.764605 102*2082.320658 
102*2082.320658 102*2079.876710 
102*2079.876710 102*2077.432763 
102*2077.432763 102*2074.988816 
102*2074.988816 102*2072.544868 
102*2072.544868 102*2070.100921 
102*2070.100921 102*2067.656973 
102*2067.656973 102*2065.213026 
102*2065.213026 102*2062.769079 
102*2062.769079 102*2060.325131 
102*2060.325131 102*2057.881184 
102*2057.881184 102*2055.437237 
102*2055.437237 102*2052.993289 
102*2052.993289 102*2050.549342 
102*2050.549342 102*2048.105395 
102*2048.105395 102*2045.661447 
102*2045.661447 102*2043.217500 
102*2043.217500 102*2040.773553 
102*2040.773553 102*2038.329605 
102*2038.329605 102*2035.885658 
102*2035.885658 102*2033.441710 
102*2033.441710 102*2030.997763 
102*2030.997763 102*2028.553816 
102*2028.553816 102*2026.109868 
102*2026.109868 102*2023.665921 
102*2023.665921 102*2021.221974 
102*2021.221974 102*2018.778026 
102*2018.778026 102*2016.334079 
102*2016.334079 102*2013.890132 
102*2013.890132 102*2011.446184 
102*2011.446184 102*2009.002237 
102*2009.002237 102*2006.558290 
102*2006.558290 102*2004.114342 
102*2004.114342 102*2001.670395 
102*2001.670395 102*1999.226447 
102*1999.226447 102*1996.782500 
102*1996.782500 102*1994.338553 
102*1994.338553 102*1991.894605 
102*1991.894605 102*1989.450658 
102*1989.450658 102*1987.006711 
102*1987.006711 102*1984.562763 
102*1984.562763 102*1982.118816 
102*1982.118816 102*1979.674869 
102*1979.674869 102*1977.230921 
102*1977.230921 102*1974.786974 
102*1974.786974 102*1972.343027 
102*1972.343027 102*1969.899079 
102*1969.899079 102*1967.455132 
102*1967.455132 102*1965.011184 
102*1965.011184 102*1962.567237 
102*1962.567237 102*1960.123290 
102*2084.764605 102*2082.320658 
102*2082.320658 102*2079.876710 
102*2079.876710 102*2077.432763 
102*2077.432763 102*2074.988816 
102*2074.988816 102*2072.544868 
102*2072.544868 102*2070.100921 
102*2070.100921 102*2067.656973 
102*2067.656973 102*2065.213026 
102*2065.213026 102*2062.769079 
102*2062.769079 102*2060.325131 
102*2060.325131 102*2057.881184 
102*2057.881184 102*2055.437237 
102*2055.437237 102*2052.993289 
102*2052.993289 102*2050.549342 
102*2050.549342 102*2048.105395 
102*2048.105395 102*2045.661447 
102*2045.661447 102*2043.217500 
102*2043.217500 102*2040.773553 
102*2040.773553 102*2038.329605 
102*2038.329605 102*2035.885658 
102*2035.885658 102*2033.441710 
102*2033.441710 102*2030.997763 
102*2030.997763 102*2028.553816 
102*2028.553816 102*2026.109868 
102*2026.109868 102*2023.665921 
102*2023.665921 102*2021.221974 
102*2021.221974 102*2018.778026 
102*2018.778026 102*2016.334079 
102*2016.334079 102*2013.890132 
102*2013.890132 102*2011.446184 
102*2011.446184 102*2009.002237 
102*2009.002237 102*2006.558290 
102*2006.558290 102*2004.114342 
102*2004.114342 102*2001.670395 
102*2001.670395 102*1999.226447 
102*1999.226447 102*1996.782500 
102*1996.782500 102*1994.338553 
102*1994.338553 102*1991.894605 
102*1991.894605 102*1989.450658 
102*1989.450658 102*1987.006711 
102*1987.006711 102*1984.562763 
102*1984.562763 102*1982.118816 
102*1982.118816 102*1979.674869 
102*1979.674869 102*1977.230921 
102*1977.230921 102*1974.786974 
102*1974.786974 102*1972.343027 
102*1972.343027 102*1969.899079 
102*1969.899079 102*1967.455132 
102*1967.455132 102*1965.011184 
102*1965.011184 102*1962.567237 
102*1962.567237 102*1960.123290 
102*2087.264605 102*2084.820658 
102*2084.820658 102*2082.376710 
102*2082.376710 102*2079.932763 
102*2079.932763 102*2077.488816 
102*2077.488816 102*2075.044868 
102*2075.044868 102*2072.600921 
102*2072.600921 102*2070.156973 
102*2070.156973 102*2067.713026 
102*2067.713026 102*2065.269079 
102*2065.269079 102*2062.825131 
102*2062.825131 102*2060.381184 
102*2060.381184 102*2057.937237 
102*2057.937237 102*2055.493289 
102*2055.493289 102*2053.049342 
102*2053.049342 102*2050.605395 
102*2050.605395 102*2048.161447 
102*2048.161447 102*2045.717500 
102*2045.717500 102*2043.273553 
102*2043.273553 102*2040.829605 
102*2040.829605 102*2038.385658 
102*2038.385658 102*2035.941710 
102*2035.941710 102*2033.497763 
102*2033.497763 102*2031.053816 
102*2031.053816 102*2028.609868 
102*2028.609868 102*2026.165921 
102*2026.165921 102*2023.721974 
102*2023.721974 102*2021.278026 
102*2021.278026 102*2018.834079 
102*2018.834079 102*2016.390132 
102*2016.390132 102*2013.946184 
102*2013.946184 102*2011.502237 
102*2011.502237 102*2009.058290 
102*2009.058290 102*2006.614342 
102*2006.614342 102*2004.170395 
102*2004.170395 102*2001.726447 
102*2001.726447 102*1999.282500 
102*1999.282500 102*1996.838553 
102*1996.838553 102*1994.394605 
102*1994.394605 102*1991.950658 
102*1991.950658 102*1989.506711 
102*1989.506711 102*1987.062763 