ZCORN
102*2024.513849 102*2023.588798 
102*2023.588798 102*2022.663747 
102*2022.663747 102*2021.738696 
102*2021.738696 102*2020.813645 
102*2020.813645 102*2019.888594 
102*2019.888594 102*2018.963543 
102*2018.963543 102*2018.038492 
102*2018.038492 102*2017.113441 
102*2017.113441 102*2016.188391 
102*2016.188391 102*2015.263340 
102*2015.263340 102*2014.338289 
102*2014.338289 102*2013.413238 
102*2013.413238 102*2012.488187 
102*2012.488187 102*2011.563136 
102*2011.563136 102*2010.638085 
102*2010.638085 102*2009.713034 
102*2009.713034 102*2008.787983 
102*2008.787983 102*2007.862933 
102*2007.862933 102*2006.937882 
102*2006.937882 102*2006.012831 
102*2006.012831 102*2005.087780 
102*2005.087780 102*2004.162729 
102*2004.162729 102*2003.237678 
102*2003.237678 102*2002.312627 
102*2002.312627 102*2001.387576 
102*2001.387576 102*2000.462525 
102*2000.462525 102*1999.537475 
102*1999.537475 102*1998.612424 
102*1998.612424 102*1997.687373 
102*1997.687373 102*1996.762322 
102*1996.762322 102*1995.837271 
102*1995.837271 102*1994.912220 
102*1994.912220 102*1993.987169 
102*1993.987169 102*1993.062118 
102*1993.062118 102*1992.137067 
102*1992.137067 102*1991.212017 
102*1991.212017 102*1990.286966 
102*1990.286966 102*1989.361915 
102*1989.361915 102*1988.436864 
102*1988.436864 102*1987.511813 
102*1987.511813 102*1986.586762 
102*1986.586762 102*1985.661711 
102*1985.661711 102*1984.736660 
102*1984.736660 102*1983.811609 
102*1983.811609 102*1982.886559 
102*1982.886559 102*1981.961508 
102*1981.961508 102*1981.036457 
102*1981.036457 102*1980.111406 
102*1980.111406 102*1979.186355 
102*1979.186355 102*1978.261304 
102*1978.261304 102*1977.336253 
102*2027.013849 102*2026.088798 
102*2026.088798 102*2025.163747 
102*2025.163747 102*2024.238696 
102*2024.238696 102*2023.313645 
102*2023.313645 102*2022.388594 
102*2022.388594 102*2021.463543 
102*2021.463543 102*2020.538492 
102*2020.538492 102*2019.613441 
102*2019.613441 102*2018.688391 
102*2018.688391 102*2017.763340 
102*2017.763340 102*2016.838289 
102*2016.838289 102*2015.913238 
102*2015.913238 102*2014.988187 
102*2014.988187 102*2014.063136 
102*2014.063136 102*2013.138085 
102*2013.138085 102*2012.213034 
102*2012.213034 102*2011.287983 
102*2011.287983 102*2010.362933 
102*2010.362933 102*2009.437882 
102*2009.437882 102*2008.512831 
102*2008.512831 102*2007.587780 
102*2007.587780 102*2006.662729 
102*2006.662729 102*2005.737678 
102*2005.737678 102*2004.812627 
102*2004.812627 102*2003.887576 
102*2003.887576 102*2002.962525 
102*2002.962525 102*2002.037475 
102*2002.037475 102*2001.112424 
102*2001.112424 102*2000.187373 
102*2000.187373 102*1999.262322 
102*1999.262322 102*1998.337271 
102*1998.337271 102*1997.412220 
102*1997.412220 102*1996.487169 
102*1996.487169 102*1995.562118 
102*1995.562118 102*1994.637067 
102*1994.637067 102*1993.712017 
102*1993.712017 102*1992.786966 
102*1992.786966 102*1991.861915 
102*1991.861915 102*1990.936864 
102*1990.936864 102*1990.011813 
102*1990.011813 102*1989.086762 
102*1989.086762 102*1988.161711 
102*1988.161711 102*1987.236660 
102*1987.236660 102*1986.311609 
102*1986.311609 102*1985.386559 
102*1985.386559 102*1984.461508 
102*1984.461508 102*1983.536457 
102*1983.536457 102*1982.611406 
102*1982.611406 102*1981.686355 
102*1981.686355 102*1980.761304 
102*1980.761304 102*1979.836253 
102*2027.013849 102*2026.088798 
102*2026.088798 102*2025.163747 
102*2025.163747 102*2024.238696 
102*2024.238696 102*2023.313645 
102*2023.313645 102*2022.388594 
102*2022.388594 102*2021.463543 
102*2021.463543 102*2020.538492 
102*2020.538492 102*2019.613441 
102*2019.613441 102*2018.688391 
102*2018.688391 102*2017.763340 
102*2017.763340 102*2016.838289 
102*2016.838289 102*2015.913238 
102*2015.913238 102*2014.988187 
102*2014.988187 102*2014.063136 
102*2014.063136 102*2013.138085 
102*2013.138085 102*2012.213034 
102*2012.213034 102*2011.287983 
102*2011.287983 102*2010.362933 
102*2010.362933 102*2009.437882 
102*2009.437882 102*2008.512831 
102*2008.512831 102*2007.587780 
102*2007.587780 102*2006.662729 
102*2006.662729 102*2005.737678 
102*2005.737678 102*2004.812627 
102*2004.812627 102*2003.887576 
102*2003.887576 102*2002.962525 
102*2002.962525 102*2002.037475 
102*2002.037475 102*2001.112424 
102*2001.112424 102*2000.187373 
102*2000.187373 102*1999.262322 
102*1999.262322 102*1998.337271 
102*1998.337271 102*1997.412220 
102*1997.412220 102*1996.487169 
102*1996.487169 102*1995.562118 
102*1995.562118 102*1994.637067 
102*1994.637067 102*1993.712017 
102*1993.712017 102*1992.786966 
102*1992.786966 102*1991.861915 
102*1991.861915 102*1990.936864 
102*1990.936864 102*1990.011813 
102*1990.011813 102*1989.086762 
102*1989.086762 102*1988.161711 
102*1988.161711 102*1987.236660 
102*1987.236660 102*1986.311609 
102*1986.311609 102*1985.386559 
102*1985.386559 102*1984.461508 
102*1984.461508 102*1983.536457 
102*1983.536457 102*1982.611406 
102*1982.611406 102*1981.686355 
102*1981.686355 102*1980.761304 
102*1980.761304 102*1979.836253 
102*2029.513849 102*2028.588798 
102*2028.588798 102*2027.663747 
102*2027.663747 102*2026.738696 
102*2026.738696 102*2025.813645 
102*2025.813645 102*2024.888594 
102*2024.888594 102*2023.963543 
102*2023.963543 102*2023.038492 
102*2023.038492 102*2022.113441 
102*2022.113441 102*2021.188391 
102*2021.188391 102*2020.263340 
102*2020.263340 102*2019.338289 
102*2019.338289 102*2018.413238 
102*2018.413238 102*2017.488187 
102*2017.488187 102*2016.563136 
102*2016.563136 102*2015.638085 
102*2015.638085 102*2014.713034 
102*2014.713034 102*2013.787983 
102*2013.787983 102*2012.862933 
102*2012.862933 102*2011.937882 
102*2011.937882 102*2011.012831 
102*2011.012831 102*2010.087780 
102*2010.087780 102*2009.162729 
102*2009.162729 102*2008.237678 
102*2008.237678 102*2007.312627 
102*2007.312627 102*2006.387576 
102*2006.387576 102*2005.462525 
102*2005.462525 102*2004.537475 
102*2004.537475 102*2003.612424 
102*2003.612424 102*2002.687373 
102*2002.687373 102*2001.762322 
102*2001.762322 102*2000.837271 
102*2000.837271 102*1999.912220 
102*1999.912220 102*1998.987169 
102*1998.987169 102*1998.062118 
102*1998.062118 102*1997.137067 
102*1997.137067 102*1996.212017 
102*1996.212017 102*1995.286966 
102*1995.286966 102*1994.361915 
102*1994.361915 102*1993.436864 
102*1993.436864 102*1992.511813 
102*1992.511813 102*1991.586762 
102*1991.586762 102*1990.661711 
102*1990.661711 102*1989.736660 
102*1989.736660 102*1988.811609 
102*1988.811609 102*1987.886559 
102*1987.886559 102*1986.961508 
102*1986.961508 102*1986.036457 
102*1986.036457 102*1985.111406 
102*1985.111406 102*1984.186355 
102*1984.186355 102*1983.261304 
102*1983.261304 102*1982.336253 
102*2029.513849 102*2028.588798 
102*2028.588798 102*2027.663747 
102*2027.663747 102*2026.738696 
102*2026.738696 102*2025.813645 
102*2025.813645 102*2024.888594 
102*2024.888594 102*2023.963543 
102*2023.963543 102*2023.038492 
102*2023.038492 102*2022.113441 
102*2022.113441 102*2021.188391 
102*2021.188391 102*2020.263340 
102*2020.263340 102*2019.338289 
102*2019.338289 102*2018.413238 
102*2018.413238 102*2017.488187 
102*2017.488187 102*2016.563136 
102*2016.563136 102*2015.638085 
102*2015.638085 102*2014.713034 
102*2014.713034 102*2013.787983 
102*2013.787983 102*2012.862933 
102*2012.862933 102*2011.937882 
102*2011.937882 102*2011.012831 
102*2011.012831 102*2010.087780 
102*2010.087780 102*2009.162729 
102*2009.162729 102*2008.237678 
102*2008.237678 102*2007.312627 
102*2007.312627 102*2006.387576 
102*2006.387576 102*2005.462525 
102*2005.462525 102*2004.537475 
102*2004.537475 102*2003.612424 
102*2003.612424 102*2002.687373 
102*2002.687373 102*2001.762322 
102*2001.762322 102*2000.837271 
102*2000.837271 102*1999.912220 
102*1999.912220 102*1998.987169 
102*1998.987169 102*1998.062118 
102*1998.062118 102*1997.137067 
102*1997.137067 102*1996.212017 
102*1996.212017 102*1995.286966 
102*1995.286966 102*1994.361915 
102*1994.361915 102*1993.436864 
102*1993.436864 102*1992.511813 
102*1992.511813 102*1991.586762 
102*1991.586762 102*1990.661711 
102*1990.661711 102*1989.736660 
102*1989.736660 102*1988.811609 
102*1988.811609 102*1987.886559 
102*1987.886559 102*1986.961508 
102*1986.961508 102*1986.036457 
102*1986.036457 102*1985.111406 
102*1985.111406 102*1984.186355 
102*1984.186355 102*1983.261304 
102*1983.261304 102*1982.336253 
102*2032.013849 102*2031.088798 
102*2031.088798 102*2030.163747 
102*2030.163747 102*2029.238696 
102*2029.238696 102*2028.313645 
102*2028.313645 102*2027.388594 
102*2027.388594 102*2026.463543 
102*2026.463543 102*2025.538492 
102*2025.538492 102*2024.613441 
102*2024.613441 102*2023.688391 
102*2023.688391 102*2022.763340 
102*2022.763340 102*2021.838289 
102*2021.838289 102*2020.913238 
102*2020.913238 102*2019.988187 
102*2019.988187 102*2019.063136 
102*2019.063136 102*2018.138085 
102*2018.138085 102*2017.213034 
102*2017.213034 102*2016.287983 
102*2016.287983 102*2015.362933 
102*2015.362933 102*2014.437882 
102*2014.437882 102*2013.512831 
102*2013.512831 102*2012.587780 
102*2012.587780 102*2011.662729 
102*2011.662729 102*2010.737678 
102*2010.737678 102*2009.812627 
102*2009.812627 102*2008.887576 
102*2008.887576 102*2007.962525 
102*2007.962525 102*2007.037475 
102*2007.037475 102*2006.112424 
102*2006.112424 102*2005.187373 
102*2005.187373 102*2004.262322 
102*2004.262322 102*2003.337271 
102*2003.337271 102*2002.412220 
102*2002.412220 102*2001.487169 
102*2001.487169 102*2000.562118 
102*2000.562118 102*1999.637067 
102*1999.637067 102*1998.712017 
102*1998.712017 102*1997.786966 
102*1997.786966 102*1996.861915 
102*1996.861915 102*1995.936864 
102*1995.936864 102*1995.011813 
102*1995.011813 102*1994.086762 
102*1994.086762 102*1993.161711 
102*1993.161711 102*1992.236660 
102*1992.236660 102*1991.311609 
102*1991.311609 102*1990.386559 
102*1990.386559 102*1989.461508 
102*1989.461508 102*1988.536457 
102*1988.536457 102*1987.611406 
102*1987.611406 102*1986.686355 
102*1986.686355 102*1985.761304 
102*1985.761304 102*1984.836253 
102*2032.013849 102*2031.088798 
102*2031.088798 102*2030.163747 
102*2030.163747 102*2029.238696 
102*2029.238696 102*2028.313645 
102*2028.313645 102*2027.388594 
102*2027.388594 102*2026.463543 
102*2026.463543 102*2025.538492 
102*2025.538492 102*2024.613441 
102*2024.613441 102*2023.688391 
102*2023.688391 102*2022.763340 
102*2022.763340 102*2021.838289 
102*2021.838289 102*2020.913238 
102*2020.913238 102*2019.988187 
102*2019.988187 102*2019.063136 
102*2019.063136 102*2018.138085 
102*2018.138085 102*2017.213034 
102*2017.213034 102*2016.287983 
102*2016.287983 102*2015.362933 
102*2015.362933 102*2014.437882 
102*2014.437882 102*2013.512831 
102*2013.512831 102*2012.587780 
102*2012.587780 102*2011.662729 
102*2011.662729 102*2010.737678 
102*2010.737678 102*2009.812627 
102*2009.812627 102*2008.887576 
102*2008.887576 102*2007.962525 
102*2007.962525 102*2007.037475 
102*2007.037475 102*2006.112424 
102*2006.112424 102*2005.187373 
102*2005.187373 102*2004.262322 
102*2004.262322 102*2003.337271 
102*2003.337271 102*2002.412220 
102*2002.412220 102*2001.487169 
102*2001.487169 102*2000.562118 
102*2000.562118 102*1999.637067 
102*1999.637067 102*1998.712017 
102*1998.712017 102*1997.786966 
102*1997.786966 102*1996.861915 
102*1996.861915 102*1995.936864 
102*1995.936864 102*1995.011813 
102*1995.011813 102*1994.086762 
102*1994.086762 102*1993.161711 
102*1993.161711 102*1992.236660 
102*1992.236660 102*1991.311609 
102*1991.311609 102*1990.386559 
102*1990.386559 102*1989.461508 
102*1989.461508 102*1988.536457 
102*1988.536457 102*1987.611406 
102*1987.611406 102*1986.686355 
102*1986.686355 102*1985.761304 
102*1985.761304 102*1984.836253 
102*2034.513849 102*2033.588798 
102*2033.588798 102*2032.663747 
102*2032.663747 102*2031.738696 
102*2031.738696 102*2030.813645 
102*2030.813645 102*2029.888594 
102*2029.888594 102*2028.963543 
102*2028.963543 102*2028.038492 
102*2028.038492 102*2027.113441 
102*2027.113441 102*2026.188391 
102*2026.188391 102*2025.263340 
102*2025.263340 102*2024.338289 
102*2024.338289 102*2023.413238 
102*2023.413238 102*2022.488187 
102*2022.488187 102*2021.563136 
102*2021.563136 102*2020.638085 
102*2020.638085 102*2019.713034 
102*2019.713034 102*2018.787983 
102*2018.787983 102*2017.862933 
102*2017.862933 102*2016.937882 
102*2016.937882 102*2016.012831 
102*2016.012831 102*2015.087780 
102*2015.087780 102*2014.162729 
102*2014.162729 102*2013.237678 
102*2013.237678 102*2012.312627 
102*2012.312627 102*2011.387576 
102*2011.387576 102*2010.462525 
102*2010.462525 102*2009.537475 
102*2009.537475 102*2008.612424 
102*2008.612424 102*2007.687373 
102*2007.687373 102*2006.762322 
102*2006.762322 102*2005.837271 
102*2005.837271 102*2004.912220 
102*2004.912220 102*2003.987169 
102*2003.987169 102*2003.062118 
102*2003.062118 102*2002.137067 
102*2002.137067 102*2001.212017 
102*2001.212017 102*2000.286966 
102*2000.286966 102*1999.361915 
102*1999.361915 102*1998.436864 
102*1998.436864 102*1997.511813 
102*1997.511813 102*1996.586762 
102*1996.586762 102*1995.661711 
102*1995.661711 102*1994.736660 
102*1994.736660 102*1993.811609 
102*1993.811609 102*1992.886559 
102*1992.886559 102*1991.961508 
102*1991.961508 102*1991.036457 
102*1991.036457 102*1990.111406 
102*1990.111406 102*1989.186355 
102*1989.186355 102*1988.261304 
102*1988.261304 102*1987.336253 
102*2034.513849 102*2033.588798 
102*2033.588798 102*2032.663747 
102*2032.663747 102*2031.738696 
102*2031.738696 102*2030.813645 
102*2030.813645 102*2029.888594 
102*2029.888594 102*2028.963543 
102*2028.963543 102*2028.038492 
102*2028.038492 102*2027.113441 
102*2027.113441 102*2026.188391 
102*2026.188391 102*2025.263340 
102*2025.263340 102*2024.338289 
102*2024.338289 102*2023.413238 
102*2023.413238 102*2022.488187 
102*2022.488187 102*2021.563136 
102*2021.563136 102*2020.638085 
102*2020.638085 102*2019.713034 
102*2019.713034 102*2018.787983 
102*2018.787983 102*2017.862933 
102*2017.862933 102*2016.937882 
102*2016.937882 102*2016.012831 
102*2016.012831 102*2015.087780 
102*2015.087780 102*2014.162729 
102*2014.162729 102*2013.237678 
102*2013.237678 102*2012.312627 
102*2012.312627 102*2011.387576 
102*2011.387576 102*2010.462525 
102*2010.462525 102*2009.537475 
102*2009.537475 102*2008.612424 
102*2008.612424 102*2007.687373 
102*2007.687373 102*2006.762322 
102*2006.762322 102*2005.837271 
102*2005.837271 102*2004.912220 
102*2004.912220 102*2003.987169 
102*2003.987169 102*2003.062118 
102*2003.062118 102*2002.137067 
102*2002.137067 102*2001.212017 
102*2001.212017 102*2000.286966 
102*2000.286966 102*1999.361915 
102*1999.361915 102*1998.436864 
102*1998.436864 102*1997.511813 
102*1997.511813 102*1996.586762 
102*1996.586762 102*1995.661711 
102*1995.661711 102*1994.736660 
102*1994.736660 102*1993.811609 
102*1993.811609 102*1992.886559 
102*1992.886559 102*1991.961508 
102*1991.961508 102*1991.036457 
102*1991.036457 102*1990.111406 
102*1990.111406 102*1989.186355 
102*1989.186355 102*1988.261304 
102*1988.261304 102*1987.336253 
102*2037.013849 102*2036.088798 
102*2036.088798 102*2035.163747 
102*2035.163747 102*2034.238696 
102*2034.238696 102*2033.313645 
102*2033.313645 102*2032.388594 
102*2032.388594 102*2031.463543 
102*2031.463543 102*2030.538492 
102*2030.538492 102*2029.613441 
102*2029.613441 102*2028.688391 
102*2028.688391 102*2027.763340 
102*2027.763340 102*2026.838289 
102*2026.838289 102*2025.913238 
102*2025.913238 102*2024.988187 
102*2024.988187 102*2024.063136 
102*2024.063136 102*2023.138085 
102*2023.138085 102*2022.213034 
102*2022.213034 102*2021.287983 
102*2021.287983 102*2020.362933 
102*2020.362933 102*2019.437882 
102*2019.437882 102*2018.512831 
102*2018.512831 102*2017.587780 
102*2017.587780 102*2016.662729 
102*2016.662729 102*2015.737678 
102*2015.737678 102*2014.812627 
102*2014.812627 102*2013.887576 
102*2013.887576 102*2012.962525 
102*2012.962525 102*2012.037475 
102*2012.037475 102*2011.112424 
102*2011.112424 102*2010.187373 
102*2010.187373 102*2009.262322 
102*2009.262322 102*2008.337271 
102*2008.337271 102*2007.412220 
102*2007.412220 102*2006.487169 
102*2006.487169 102*2005.562118 
102*2005.562118 102*2004.637067 
102*2004.637067 102*2003.712017 
102*2003.712017 102*2002.786966 
102*2002.786966 102*2001.861915 
102*2001.861915 102*2000.936864 
102*2000.936864 102*2000.011813 
102*2000.011813 102*1999.086762 
102*1999.086762 102*1998.161711 
102*1998.161711 102*1997.236660 
102*1997.236660 102*1996.311609 
102*1996.311609 102*1995.386559 
102*1995.386559 102*1994.461508 
102*1994.461508 102*1993.536457 
102*1993.536457 102*1992.611406 
102*1992.611406 102*1991.686355 
102*1991.686355 102*1990.761304 
102*1990.761304 102*1989.836253 
102*2037.013849 102*2036.088798 
102*2036.088798 102*2035.163747 
102*2035.163747 102*2034.238696 
102*2034.238696 102*2033.313645 
102*2033.313645 102*2032.388594 
102*2032.388594 102*2031.463543 
102*2031.463543 102*2030.538492 
102*2030.538492 102*2029.613441 
102*2029.613441 102*2028.688391 
102*2028.688391 102*2027.763340 
102*2027.763340 102*2026.838289 
102*2026.838289 102*2025.913238 
102*2025.913238 102*2024.988187 
102*2024.988187 102*2024.063136 
102*2024.063136 102*2023.138085 
102*2023.138085 102*2022.213034 
102*2022.213034 102*2021.287983 
102*2021.287983 102*2020.362933 
102*2020.362933 102*2019.437882 
102*2019.437882 102*2018.512831 
102*2018.512831 102*2017.587780 
102*2017.587780 102*2016.662729 
102*2016.662729 102*2015.737678 
102*2015.737678 102*2014.812627 
102*2014.812627 102*2013.887576 
102*2013.887576 102*2012.962525 
102*2012.962525 102*2012.037475 
102*2012.037475 102*2011.112424 
102*2011.112424 102*2010.187373 
102*2010.187373 102*2009.262322 
102*2009.262322 102*2008.337271 
102*2008.337271 102*2007.412220 
102*2007.412220 102*2006.487169 
102*2006.487169 102*2005.562118 
102*2005.562118 102*2004.637067 
102*2004.637067 102*2003.712017 
102*2003.712017 102*2002.786966 
102*2002.786966 102*2001.861915 
102*2001.861915 102*2000.936864 
102*2000.936864 102*2000.011813 
102*2000.011813 102*1999.086762 
102*1999.086762 102*1998.161711 
102*1998.161711 102*1997.236660 
102*1997.236660 102*1996.311609 
102*1996.311609 102*1995.386559 
102*1995.386559 102*1994.461508 
102*1994.461508 102*1993.536457 
102*1993.536457 102*1992.611406 
102*1992.611406 102*1991.686355 
102*1991.686355 102*1990.761304 
102*1990.761304 102*1989.836253 
102*2039.513849 102*2038.588798 
102*2038.588798 102*2037.663747 
102*2037.663747 102*2036.738696 
102*2036.738696 102*2035.813645 
102*2035.813645 102*2034.888594 
102*2034.888594 102*2033.963543 
102*2033.963543 102*2033.038492 
102*2033.038492 102*2032.113441 
102*2032.113441 102*2031.188391 
102*2031.188391 102*2030.263340 
102*2030.263340 102*2029.338289 
102*2029.338289 102*2028.413238 
102*2028.413238 102*2027.488187 
102*2027.488187 102*2026.563136 
102*2026.563136 102*2025.638085 
102*2025.638085 102*2024.713034 
102*2024.713034 102*2023.787983 
102*2023.787983 102*2022.862933 
102*2022.862933 102*2021.937882 
102*2021.937882 102*2021.012831 
102*2021.012831 102*2020.087780 
102*2020.087780 102*2019.162729 
102*2019.162729 102*2018.237678 
102*2018.237678 102*2017.312627 
102*2017.312627 102*2016.387576 
102*2016.387576 102*2015.462525 
102*2015.462525 102*2014.537475 
102*2014.537475 102*2013.612424 
102*2013.612424 102*2012.687373 
102*2012.687373 102*2011.762322 
102*2011.762322 102*2010.837271 
102*2010.837271 102*2009.912220 
102*2009.912220 102*2008.987169 
102*2008.987169 102*2008.062118 
102*2008.062118 102*2007.137067 
102*2007.137067 102*2006.212017 
102*2006.212017 102*2005.286966 
102*2005.286966 102*2004.361915 
102*2004.361915 102*2003.436864 
102*2003.436864 102*2002.511813 
102*2002.511813 102*2001.586762 
102*2001.586762 102*2000.661711 
102*2000.661711 102*1999.736660 
102*1999.736660 102*1998.811609 
102*1998.811609 102*1997.886559 
102*1997.886559 102*1996.961508 
102*1996.961508 102*1996.036457 
102*1996.036457 102*1995.111406 
102*1995.111406 102*1994.186355 
102*1994.186355 102*1993.261304 
102*1993.261304 102*1992.336253 
102*2039.513849 102*2038.588798 
102*2038.588798 102*2037.663747 
102*2037.663747 102*2036.738696 
102*2036.738696 102*2035.813645 
102*2035.813645 102*2034.888594 
102*2034.888594 102*2033.963543 
102*2033.963543 102*2033.038492 
102*2033.038492 102*2032.113441 
102*2032.113441 102*2031.188391 
102*2031.188391 102*2030.263340 
102*2030.263340 102*2029.338289 
102*2029.338289 102*2028.413238 
102*2028.413238 102*2027.488187 
102*2027.488187 102*2026.563136 
102*2026.563136 102*2025.638085 
102*2025.638085 102*2024.713034 
102*2024.713034 102*2023.787983 
102*2023.787983 102*2022.862933 
102*2022.862933 102*2021.937882 
102*2021.937882 102*2021.012831 
102*2021.012831 102*2020.087780 
102*2020.087780 102*2019.162729 
102*2019.162729 102*2018.237678 
102*2018.237678 102*2017.312627 
102*2017.312627 102*2016.387576 
102*2016.387576 102*2015.462525 
102*2015.462525 102*2014.537475 
102*2014.537475 102*2013.612424 
102*2013.612424 102*2012.687373 
102*2012.687373 102*2011.762322 
102*2011.762322 102*2010.837271 
102*2010.837271 102*2009.912220 
102*2009.912220 102*2008.987169 
102*2008.987169 102*2008.062118 
102*2008.062118 102*2007.137067 
102*2007.137067 102*2006.212017 
102*2006.212017 102*2005.286966 
102*2005.286966 102*2004.361915 
102*2004.361915 102*2003.436864 
102*2003.436864 102*2002.511813 
102*2002.511813 102*2001.586762 
102*2001.586762 102*2000.661711 
102*2000.661711 102*1999.736660 
102*1999.736660 102*1998.811609 
102*1998.811609 102*1997.886559 
102*1997.886559 102*1996.961508 
102*1996.961508 102*1996.036457 
102*1996.036457 102*1995.111406 
102*1995.111406 102*1994.186355 
102*1994.186355 102*1993.261304 
102*1993.261304 102*1992.336253 
102*2042.013849 102*2041.088798 
102*2041.088798 102*2040.163747 
102*2040.163747 102*2039.238696 
102*2039.238696 102*2038.313645 
102*2038.313645 102*2037.388594 
102*2037.388594 102*2036.463543 
102*2036.463543 102*2035.538492 
102*2035.538492 102*2034.613441 
102*2034.613441 102*2033.688391 
102*2033.688391 102*2032.763340 
102*2032.763340 102*2031.838289 
102*2031.838289 102*2030.913238 
102*2030.913238 102*2029.988187 
102*2029.988187 102*2029.063136 
102*2029.063136 102*2028.138085 
102*2028.138085 102*2027.213034 
102*2027.213034 102*2026.287983 
102*2026.287983 102*2025.362933 
102*2025.362933 102*2024.437882 
102*2024.437882 102*2023.512831 
102*2023.512831 102*2022.587780 
102*2022.587780 102*2021.662729 
102*2021.662729 102*2020.737678 
102*2020.737678 102*2019.812627 
102*2019.812627 102*2018.887576 
102*2018.887576 102*2017.962525 
102*2017.962525 102*2017.037475 
102*2017.037475 102*2016.112424 
102*2016.112424 102*2015.187373 
102*2015.187373 102*2014.262322 
102*2014.262322 102*2013.337271 
102*2013.337271 102*2012.412220 
102*2012.412220 102*2011.487169 
102*2011.487169 102*2010.562118 
102*2010.562118 102*2009.637067 
102*2009.637067 102*2008.712017 
102*2008.712017 102*2007.786966 
102*2007.786966 102*2006.861915 
102*2006.861915 102*2005.936864 
102*2005.936864 102*2005.011813 
102*2005.011813 102*2004.086762 
102*2004.086762 102*2003.161711 
102*2003.161711 102*2002.236660 
102*2002.236660 102*2001.311609 
102*2001.311609 102*2000.386559 
102*2000.386559 102*1999.461508 
102*1999.461508 102*1998.536457 
102*1998.536457 102*1997.611406 
102*1997.611406 102*1996.686355 
102*1996.686355 102*1995.761304 
102*1995.761304 102*1994.836253 
102*2042.013849 102*2041.088798 
102*2041.088798 102*2040.163747 
102*2040.163747 102*2039.238696 
102*2039.238696 102*2038.313645 
102*2038.313645 102*2037.388594 
102*2037.388594 102*2036.463543 
102*2036.463543 102*2035.538492 
102*2035.538492 102*2034.613441 
102*2034.613441 102*2033.688391 
102*2033.688391 102*2032.763340 
102*2032.763340 102*2031.838289 
102*2031.838289 102*2030.913238 
102*2030.913238 102*2029.988187 
102*2029.988187 102*2029.063136 
102*2029.063136 102*2028.138085 
102*2028.138085 102*2027.213034 
102*2027.213034 102*2026.287983 
102*2026.287983 102*2025.362933 
102*2025.362933 102*2024.437882 
102*2024.437882 102*2023.512831 
102*2023.512831 102*2022.587780 
102*2022.587780 102*2021.662729 
102*2021.662729 102*2020.737678 
102*2020.737678 102*2019.812627 
102*2019.812627 102*2018.887576 
102*2018.887576 102*2017.962525 
102*2017.962525 102*2017.037475 
102*2017.037475 102*2016.112424 
102*2016.112424 102*2015.187373 
102*2015.187373 102*2014.262322 
102*2014.262322 102*2013.337271 
102*2013.337271 102*2012.412220 
102*2012.412220 102*2011.487169 
102*2011.487169 102*2010.562118 
102*2010.562118 102*2009.637067 
102*2009.637067 102*2008.712017 
102*2008.712017 102*2007.786966 
102*2007.786966 102*2006.861915 
102*2006.861915 102*2005.936864 
102*2005.936864 102*2005.011813 
102*2005.011813 102*2004.086762 
102*2004.086762 102*2003.161711 
102*2003.161711 102*2002.236660 
102*2002.236660 102*2001.311609 
102*2001.311609 102*2000.386559 
102*2000.386559 102*1999.461508 
102*1999.461508 102*1998.536457 
102*1998.536457 102*1997.611406 
102*1997.611406 102*1996.686355 
102*1996.686355 102*1995.761304 
102*1995.761304 102*1994.836253 
102*2044.513849 102*2043.588798 
102*2043.588798 102*2042.663747 
102*2042.663747 102*2041.738696 
102*2041.738696 102*2040.813645 
102*2040.813645 102*2039.888594 
102*2039.888594 102*2038.963543 
102*2038.963543 102*2038.038492 
102*2038.038492 102*2037.113441 
102*2037.113441 102*2036.188391 
102*2036.188391 102*2035.263340 
102*2035.263340 102*2034.338289 
102*2034.338289 102*2033.413238 
102*2033.413238 102*2032.488187 
102*2032.488187 102*2031.563136 
102*2031.563136 102*2030.638085 
102*2030.638085 102*2029.713034 
102*2029.713034 102*2028.787983 
102*2028.787983 102*2027.862933 
102*2027.862933 102*2026.937882 
102*2026.937882 102*2026.012831 
102*2026.012831 102*2025.087780 
102*2025.087780 102*2024.162729 
102*2024.162729 102*2023.237678 
102*2023.237678 102*2022.312627 
102*2022.312627 102*2021.387576 
102*2021.387576 102*2020.462525 
102*2020.462525 102*2019.537475 
102*2019.537475 102*2018.612424 
102*2018.612424 102*2017.687373 
102*2017.687373 102*2016.762322 
102*2016.762322 102*2015.837271 
102*2015.837271 102*2014.912220 
102*2014.912220 102*2013.987169 
102*2013.987169 102*2013.062118 
102*2013.062118 102*2012.137067 
102*2012.137067 102*2011.212017 
102*2011.212017 102*2010.286966 
102*2010.286966 102*2009.361915 
102*2009.361915 102*2008.436864 
102*2008.436864 102*2007.511813 
102*2007.511813 102*2006.586762 
102*2006.586762 102*2005.661711 
102*2005.661711 102*2004.736660 
102*2004.736660 102*2003.811609 
102*2003.811609 102*2002.886559 
102*2002.886559 102*2001.961508 
102*2001.961508 102*2001.036457 
102*2001.036457 102*2000.111406 
102*2000.111406 102*1999.186355 
102*1999.186355 102*1998.261304 
102*1998.261304 102*1997.336253 
102*2044.513849 102*2043.588798 
102*2043.588798 102*2042.663747 
102*2042.663747 102*2041.738696 
102*2041.738696 102*2040.813645 
102*2040.813645 102*2039.888594 
102*2039.888594 102*2038.963543 
102*2038.963543 102*2038.038492 
102*2038.038492 102*2037.113441 
102*2037.113441 102*2036.188391 
102*2036.188391 102*2035.263340 
102*2035.263340 102*2034.338289 
102*2034.338289 102*2033.413238 
102*2033.413238 102*2032.488187 
102*2032.488187 102*2031.563136 
102*2031.563136 102*2030.638085 
102*2030.638085 102*2029.713034 
102*2029.713034 102*2028.787983 
102*2028.787983 102*2027.862933 
102*2027.862933 102*2026.937882 
102*2026.937882 102*2026.012831 
102*2026.012831 102*2025.087780 
102*2025.087780 102*2024.162729 
102*2024.162729 102*2023.237678 
102*2023.237678 102*2022.312627 
102*2022.312627 102*2021.387576 
102*2021.387576 102*2020.462525 
102*2020.462525 102*2019.537475 
102*2019.537475 102*2018.612424 
102*2018.612424 102*2017.687373 
102*2017.687373 102*2016.762322 
102*2016.762322 102*2015.837271 
102*2015.837271 102*2014.912220 
102*2014.912220 102*2013.987169 
102*2013.987169 102*2013.062118 
102*2013.062118 102*2012.137067 
102*2012.137067 102*2011.212017 
102*2011.212017 102*2010.286966 
102*2010.286966 102*2009.361915 
102*2009.361915 102*2008.436864 
102*2008.436864 102*2007.511813 
102*2007.511813 102*2006.586762 
102*2006.586762 102*2005.661711 
102*2005.661711 102*2004.736660 
102*2004.736660 102*2003.811609 
102*2003.811609 102*2002.886559 
102*2002.886559 102*2001.961508 
102*2001.961508 102*2001.036457 
102*2001.036457 102*2000.111406 
102*2000.111406 102*1999.186355 
102*1999.186355 102*1998.261304 
102*1998.261304 102*1997.336253 
102*2047.013849 102*2046.088798 
102*2046.088798 102*2045.163747 
102*2045.163747 102*2044.238696 
102*2044.238696 102*2043.313645 
102*2043.313645 102*2042.388594 
102*2042.388594 102*2041.463543 
102*2041.463543 102*2040.538492 
102*2040.538492 102*2039.613441 
102*2039.613441 102*2038.688391 
102*2038.688391 102*2037.763340 
102*2037.763340 102*2036.838289 
102*2036.838289 102*2035.913238 
102*2035.913238 102*2034.988187 
102*2034.988187 102*2034.063136 
102*2034.063136 102*2033.138085 
102*2033.138085 102*2032.213034 
102*2032.213034 102*2031.287983 
102*2031.287983 102*2030.362933 
102*2030.362933 102*2029.437882 
102*2029.437882 102*2028.512831 
102*2028.512831 102*2027.587780 
102*2027.587780 102*2026.662729 
102*2026.662729 102*2025.737678 
102*2025.737678 102*2024.812627 
102*2024.812627 102*2023.887576 
102*2023.887576 102*2022.962525 
102*2022.962525 102*2022.037475 
102*2022.037475 102*2021.112424 
102*2021.112424 102*2020.187373 
102*2020.187373 102*2019.262322 
102*2019.262322 102*2018.337271 
102*2018.337271 102*2017.412220 
102*2017.412220 102*2016.487169 
102*2016.487169 102*2015.562118 
102*2015.562118 102*2014.637067 
102*2014.637067 102*2013.712017 
102*2013.712017 102*2012.786966 
102*2012.786966 102*2011.861915 
102*2011.861915 102*2010.936864 
102*2010.936864 102*2010.011813 
102*2010.011813 102*2009.086762 