ZCORN
102*2045.330621 102*2043.620032 
102*2043.620032 102*2041.909442 
102*2041.909442 102*2040.198853 
102*2040.198853 102*2038.488263 
102*2038.488263 102*2036.777674 
102*2036.777674 102*2035.067084 
102*2035.067084 102*2033.356495 
102*2033.356495 102*2031.645905 
102*2031.645905 102*2029.935316 
102*2029.935316 102*2028.224726 
102*2028.224726 102*2026.514137 
102*2026.514137 102*2024.803548 
102*2024.803548 102*2023.092958 
102*2023.092958 102*2021.382369 
102*2021.382369 102*2019.671779 
102*2019.671779 102*2017.961190 
102*2017.961190 102*2016.250600 
102*2016.250600 102*2014.540011 
102*2014.540011 102*2012.829421 
102*2012.829421 102*2011.118832 
102*2011.118832 102*2009.408242 
102*2009.408242 102*2007.697653 
102*2007.697653 102*2005.987063 
102*2005.987063 102*2004.276474 
102*2004.276474 102*2002.565884 
102*2002.565884 102*2000.855295 
102*2000.855295 102*1999.144705 
102*1999.144705 102*1997.434116 
102*1997.434116 102*1995.723526 
102*1995.723526 102*1994.012937 
102*1994.012937 102*1992.302347 
102*1992.302347 102*1990.591758 
102*1990.591758 102*1988.881168 
102*1988.881168 102*1987.170579 
102*1987.170579 102*1985.459989 
102*1985.459989 102*1983.749400 
102*1983.749400 102*1982.038810 
102*1982.038810 102*1980.328221 
102*1980.328221 102*1978.617631 
102*1978.617631 102*1976.907042 
102*1976.907042 102*1975.196452 
102*1975.196452 102*1973.485863 
102*1973.485863 102*1971.775274 
102*1971.775274 102*1970.064684 
102*1970.064684 102*1968.354095 
102*1968.354095 102*1966.643505 
102*1966.643505 102*1964.932916 
102*1964.932916 102*1963.222326 
102*1963.222326 102*1961.511737 
102*1961.511737 102*1959.801147 
102*1959.801147 102*1958.090558 
102*2047.830621 102*2046.120032 
102*2046.120032 102*2044.409442 
102*2044.409442 102*2042.698853 
102*2042.698853 102*2040.988263 
102*2040.988263 102*2039.277674 
102*2039.277674 102*2037.567084 
102*2037.567084 102*2035.856495 
102*2035.856495 102*2034.145905 
102*2034.145905 102*2032.435316 
102*2032.435316 102*2030.724726 
102*2030.724726 102*2029.014137 
102*2029.014137 102*2027.303548 
102*2027.303548 102*2025.592958 
102*2025.592958 102*2023.882369 
102*2023.882369 102*2022.171779 
102*2022.171779 102*2020.461190 
102*2020.461190 102*2018.750600 
102*2018.750600 102*2017.040011 
102*2017.040011 102*2015.329421 
102*2015.329421 102*2013.618832 
102*2013.618832 102*2011.908242 
102*2011.908242 102*2010.197653 
102*2010.197653 102*2008.487063 
102*2008.487063 102*2006.776474 
102*2006.776474 102*2005.065884 
102*2005.065884 102*2003.355295 
102*2003.355295 102*2001.644705 
102*2001.644705 102*1999.934116 
102*1999.934116 102*1998.223526 
102*1998.223526 102*1996.512937 
102*1996.512937 102*1994.802347 
102*1994.802347 102*1993.091758 
102*1993.091758 102*1991.381168 
102*1991.381168 102*1989.670579 
102*1989.670579 102*1987.959989 
102*1987.959989 102*1986.249400 
102*1986.249400 102*1984.538810 
102*1984.538810 102*1982.828221 
102*1982.828221 102*1981.117631 
102*1981.117631 102*1979.407042 
102*1979.407042 102*1977.696452 
102*1977.696452 102*1975.985863 
102*1975.985863 102*1974.275274 
102*1974.275274 102*1972.564684 
102*1972.564684 102*1970.854095 
102*1970.854095 102*1969.143505 
102*1969.143505 102*1967.432916 
102*1967.432916 102*1965.722326 
102*1965.722326 102*1964.011737 
102*1964.011737 102*1962.301147 
102*1962.301147 102*1960.590558 
102*2047.830621 102*2046.120032 
102*2046.120032 102*2044.409442 
102*2044.409442 102*2042.698853 
102*2042.698853 102*2040.988263 
102*2040.988263 102*2039.277674 
102*2039.277674 102*2037.567084 
102*2037.567084 102*2035.856495 
102*2035.856495 102*2034.145905 
102*2034.145905 102*2032.435316 
102*2032.435316 102*2030.724726 
102*2030.724726 102*2029.014137 
102*2029.014137 102*2027.303548 
102*2027.303548 102*2025.592958 
102*2025.592958 102*2023.882369 
102*2023.882369 102*2022.171779 
102*2022.171779 102*2020.461190 
102*2020.461190 102*2018.750600 
102*2018.750600 102*2017.040011 
102*2017.040011 102*2015.329421 
102*2015.329421 102*2013.618832 
102*2013.618832 102*2011.908242 
102*2011.908242 102*2010.197653 
102*2010.197653 102*2008.487063 
102*2008.487063 102*2006.776474 
102*2006.776474 102*2005.065884 
102*2005.065884 102*2003.355295 
102*2003.355295 102*2001.644705 
102*2001.644705 102*1999.934116 
102*1999.934116 102*1998.223526 
102*1998.223526 102*1996.512937 
102*1996.512937 102*1994.802347 
102*1994.802347 102*1993.091758 
102*1993.091758 102*1991.381168 
102*1991.381168 102*1989.670579 
102*1989.670579 102*1987.959989 
102*1987.959989 102*1986.249400 
102*1986.249400 102*1984.538810 
102*1984.538810 102*1982.828221 
102*1982.828221 102*1981.117631 
102*1981.117631 102*1979.407042 
102*1979.407042 102*1977.696452 
102*1977.696452 102*1975.985863 
102*1975.985863 102*1974.275274 
102*1974.275274 102*1972.564684 
102*1972.564684 102*1970.854095 
102*1970.854095 102*1969.143505 
102*1969.143505 102*1967.432916 
102*1967.432916 102*1965.722326 
102*1965.722326 102*1964.011737 
102*1964.011737 102*1962.301147 
102*1962.301147 102*1960.590558 
102*2050.330621 102*2048.620032 
102*2048.620032 102*2046.909442 
102*2046.909442 102*2045.198853 
102*2045.198853 102*2043.488263 
102*2043.488263 102*2041.777674 
102*2041.777674 102*2040.067084 
102*2040.067084 102*2038.356495 
102*2038.356495 102*2036.645905 
102*2036.645905 102*2034.935316 
102*2034.935316 102*2033.224726 
102*2033.224726 102*2031.514137 
102*2031.514137 102*2029.803548 
102*2029.803548 102*2028.092958 
102*2028.092958 102*2026.382369 
102*2026.382369 102*2024.671779 
102*2024.671779 102*2022.961190 
102*2022.961190 102*2021.250600 
102*2021.250600 102*2019.540011 
102*2019.540011 102*2017.829421 
102*2017.829421 102*2016.118832 
102*2016.118832 102*2014.408242 
102*2014.408242 102*2012.697653 
102*2012.697653 102*2010.987063 
102*2010.987063 102*2009.276474 
102*2009.276474 102*2007.565884 
102*2007.565884 102*2005.855295 
102*2005.855295 102*2004.144705 
102*2004.144705 102*2002.434116 
102*2002.434116 102*2000.723526 
102*2000.723526 102*1999.012937 
102*1999.012937 102*1997.302347 
102*1997.302347 102*1995.591758 
102*1995.591758 102*1993.881168 
102*1993.881168 102*1992.170579 
102*1992.170579 102*1990.459989 
102*1990.459989 102*1988.749400 
102*1988.749400 102*1987.038810 
102*1987.038810 102*1985.328221 
102*1985.328221 102*1983.617631 
102*1983.617631 102*1981.907042 
102*1981.907042 102*1980.196452 
102*1980.196452 102*1978.485863 
102*1978.485863 102*1976.775274 
102*1976.775274 102*1975.064684 
102*1975.064684 102*1973.354095 
102*1973.354095 102*1971.643505 
102*1971.643505 102*1969.932916 
102*1969.932916 102*1968.222326 
102*1968.222326 102*1966.511737 
102*1966.511737 102*1964.801147 
102*1964.801147 102*1963.090558 
102*2050.330621 102*2048.620032 
102*2048.620032 102*2046.909442 
102*2046.909442 102*2045.198853 
102*2045.198853 102*2043.488263 
102*2043.488263 102*2041.777674 
102*2041.777674 102*2040.067084 
102*2040.067084 102*2038.356495 
102*2038.356495 102*2036.645905 
102*2036.645905 102*2034.935316 
102*2034.935316 102*2033.224726 
102*2033.224726 102*2031.514137 
102*2031.514137 102*2029.803548 
102*2029.803548 102*2028.092958 
102*2028.092958 102*2026.382369 
102*2026.382369 102*2024.671779 
102*2024.671779 102*2022.961190 
102*2022.961190 102*2021.250600 
102*2021.250600 102*2019.540011 
102*2019.540011 102*2017.829421 
102*2017.829421 102*2016.118832 
102*2016.118832 102*2014.408242 
102*2014.408242 102*2012.697653 
102*2012.697653 102*2010.987063 
102*2010.987063 102*2009.276474 
102*2009.276474 102*2007.565884 
102*2007.565884 102*2005.855295 
102*2005.855295 102*2004.144705 
102*2004.144705 102*2002.434116 
102*2002.434116 102*2000.723526 
102*2000.723526 102*1999.012937 
102*1999.012937 102*1997.302347 
102*1997.302347 102*1995.591758 
102*1995.591758 102*1993.881168 
102*1993.881168 102*1992.170579 
102*1992.170579 102*1990.459989 
102*1990.459989 102*1988.749400 
102*1988.749400 102*1987.038810 
102*1987.038810 102*1985.328221 
102*1985.328221 102*1983.617631 
102*1983.617631 102*1981.907042 
102*1981.907042 102*1980.196452 
102*1980.196452 102*1978.485863 
102*1978.485863 102*1976.775274 
102*1976.775274 102*1975.064684 
102*1975.064684 102*1973.354095 
102*1973.354095 102*1971.643505 
102*1971.643505 102*1969.932916 
102*1969.932916 102*1968.222326 
102*1968.222326 102*1966.511737 
102*1966.511737 102*1964.801147 
102*1964.801147 102*1963.090558 
102*2052.830621 102*2051.120032 
102*2051.120032 102*2049.409442 
102*2049.409442 102*2047.698853 
102*2047.698853 102*2045.988263 
102*2045.988263 102*2044.277674 
102*2044.277674 102*2042.567084 
102*2042.567084 102*2040.856495 
102*2040.856495 102*2039.145905 
102*2039.145905 102*2037.435316 
102*2037.435316 102*2035.724726 
102*2035.724726 102*2034.014137 
102*2034.014137 102*2032.303548 
102*2032.303548 102*2030.592958 
102*2030.592958 102*2028.882369 
102*2028.882369 102*2027.171779 
102*2027.171779 102*2025.461190 
102*2025.461190 102*2023.750600 
102*2023.750600 102*2022.040011 
102*2022.040011 102*2020.329421 
102*2020.329421 102*2018.618832 
102*2018.618832 102*2016.908242 
102*2016.908242 102*2015.197653 
102*2015.197653 102*2013.487063 
102*2013.487063 102*2011.776474 
102*2011.776474 102*2010.065884 
102*2010.065884 102*2008.355295 
102*2008.355295 102*2006.644705 
102*2006.644705 102*2004.934116 
102*2004.934116 102*2003.223526 
102*2003.223526 102*2001.512937 
102*2001.512937 102*1999.802347 
102*1999.802347 102*1998.091758 
102*1998.091758 102*1996.381168 
102*1996.381168 102*1994.670579 
102*1994.670579 102*1992.959989 
102*1992.959989 102*1991.249400 
102*1991.249400 102*1989.538810 
102*1989.538810 102*1987.828221 
102*1987.828221 102*1986.117631 
102*1986.117631 102*1984.407042 
102*1984.407042 102*1982.696452 
102*1982.696452 102*1980.985863 
102*1980.985863 102*1979.275274 
102*1979.275274 102*1977.564684 
102*1977.564684 102*1975.854095 
102*1975.854095 102*1974.143505 
102*1974.143505 102*1972.432916 
102*1972.432916 102*1970.722326 
102*1970.722326 102*1969.011737 
102*1969.011737 102*1967.301147 
102*1967.301147 102*1965.590558 
102*2052.830621 102*2051.120032 
102*2051.120032 102*2049.409442 
102*2049.409442 102*2047.698853 
102*2047.698853 102*2045.988263 
102*2045.988263 102*2044.277674 
102*2044.277674 102*2042.567084 
102*2042.567084 102*2040.856495 
102*2040.856495 102*2039.145905 
102*2039.145905 102*2037.435316 
102*2037.435316 102*2035.724726 
102*2035.724726 102*2034.014137 
102*2034.014137 102*2032.303548 
102*2032.303548 102*2030.592958 
102*2030.592958 102*2028.882369 
102*2028.882369 102*2027.171779 
102*2027.171779 102*2025.461190 
102*2025.461190 102*2023.750600 
102*2023.750600 102*2022.040011 
102*2022.040011 102*2020.329421 
102*2020.329421 102*2018.618832 
102*2018.618832 102*2016.908242 
102*2016.908242 102*2015.197653 
102*2015.197653 102*2013.487063 
102*2013.487063 102*2011.776474 
102*2011.776474 102*2010.065884 
102*2010.065884 102*2008.355295 
102*2008.355295 102*2006.644705 
102*2006.644705 102*2004.934116 
102*2004.934116 102*2003.223526 
102*2003.223526 102*2001.512937 
102*2001.512937 102*1999.802347 
102*1999.802347 102*1998.091758 
102*1998.091758 102*1996.381168 
102*1996.381168 102*1994.670579 
102*1994.670579 102*1992.959989 
102*1992.959989 102*1991.249400 
102*1991.249400 102*1989.538810 
102*1989.538810 102*1987.828221 
102*1987.828221 102*1986.117631 
102*1986.117631 102*1984.407042 
102*1984.407042 102*1982.696452 
102*1982.696452 102*1980.985863 
102*1980.985863 102*1979.275274 
102*1979.275274 102*1977.564684 
102*1977.564684 102*1975.854095 
102*1975.854095 102*1974.143505 
102*1974.143505 102*1972.432916 
102*1972.432916 102*1970.722326 
102*1970.722326 102*1969.011737 
102*1969.011737 102*1967.301147 
102*1967.301147 102*1965.590558 
102*2055.330621 102*2053.620032 
102*2053.620032 102*2051.909442 
102*2051.909442 102*2050.198853 
102*2050.198853 102*2048.488263 
102*2048.488263 102*2046.777674 
102*2046.777674 102*2045.067084 
102*2045.067084 102*2043.356495 
102*2043.356495 102*2041.645905 
102*2041.645905 102*2039.935316 
102*2039.935316 102*2038.224726 
102*2038.224726 102*2036.514137 
102*2036.514137 102*2034.803548 
102*2034.803548 102*2033.092958 
102*2033.092958 102*2031.382369 
102*2031.382369 102*2029.671779 
102*2029.671779 102*2027.961190 
102*2027.961190 102*2026.250600 
102*2026.250600 102*2024.540011 
102*2024.540011 102*2022.829421 
102*2022.829421 102*2021.118832 
102*2021.118832 102*2019.408242 
102*2019.408242 102*2017.697653 
102*2017.697653 102*2015.987063 
102*2015.987063 102*2014.276474 
102*2014.276474 102*2012.565884 
102*2012.565884 102*2010.855295 
102*2010.855295 102*2009.144705 
102*2009.144705 102*2007.434116 
102*2007.434116 102*2005.723526 
102*2005.723526 102*2004.012937 
102*2004.012937 102*2002.302347 
102*2002.302347 102*2000.591758 
102*2000.591758 102*1998.881168 
102*1998.881168 102*1997.170579 
102*1997.170579 102*1995.459989 
102*1995.459989 102*1993.749400 
102*1993.749400 102*1992.038810 
102*1992.038810 102*1990.328221 
102*1990.328221 102*1988.617631 
102*1988.617631 102*1986.907042 
102*1986.907042 102*1985.196452 
102*1985.196452 102*1983.485863 
102*1983.485863 102*1981.775274 
102*1981.775274 102*1980.064684 
102*1980.064684 102*1978.354095 
102*1978.354095 102*1976.643505 
102*1976.643505 102*1974.932916 
102*1974.932916 102*1973.222326 
102*1973.222326 102*1971.511737 
102*1971.511737 102*1969.801147 
102*1969.801147 102*1968.090558 
102*2055.330621 102*2053.620032 
102*2053.620032 102*2051.909442 
102*2051.909442 102*2050.198853 
102*2050.198853 102*2048.488263 
102*2048.488263 102*2046.777674 
102*2046.777674 102*2045.067084 
102*2045.067084 102*2043.356495 
102*2043.356495 102*2041.645905 
102*2041.645905 102*2039.935316 
102*2039.935316 102*2038.224726 
102*2038.224726 102*2036.514137 
102*2036.514137 102*2034.803548 
102*2034.803548 102*2033.092958 
102*2033.092958 102*2031.382369 
102*2031.382369 102*2029.671779 
102*2029.671779 102*2027.961190 
102*2027.961190 102*2026.250600 
102*2026.250600 102*2024.540011 
102*2024.540011 102*2022.829421 
102*2022.829421 102*2021.118832 
102*2021.118832 102*2019.408242 
102*2019.408242 102*2017.697653 
102*2017.697653 102*2015.987063 
102*2015.987063 102*2014.276474 
102*2014.276474 102*2012.565884 
102*2012.565884 102*2010.855295 
102*2010.855295 102*2009.144705 
102*2009.144705 102*2007.434116 
102*2007.434116 102*2005.723526 
102*2005.723526 102*2004.012937 
102*2004.012937 102*2002.302347 
102*2002.302347 102*2000.591758 
102*2000.591758 102*1998.881168 
102*1998.881168 102*1997.170579 
102*1997.170579 102*1995.459989 
102*1995.459989 102*1993.749400 
102*1993.749400 102*1992.038810 
102*1992.038810 102*1990.328221 
102*1990.328221 102*1988.617631 
102*1988.617631 102*1986.907042 
102*1986.907042 102*1985.196452 
102*1985.196452 102*1983.485863 
102*1983.485863 102*1981.775274 
102*1981.775274 102*1980.064684 
102*1980.064684 102*1978.354095 
102*1978.354095 102*1976.643505 
102*1976.643505 102*1974.932916 
102*1974.932916 102*1973.222326 
102*1973.222326 102*1971.511737 
102*1971.511737 102*1969.801147 
102*1969.801147 102*1968.090558 
102*2057.830621 102*2056.120032 
102*2056.120032 102*2054.409442 
102*2054.409442 102*2052.698853 
102*2052.698853 102*2050.988263 
102*2050.988263 102*2049.277674 
102*2049.277674 102*2047.567084 
102*2047.567084 102*2045.856495 
102*2045.856495 102*2044.145905 
102*2044.145905 102*2042.435316 
102*2042.435316 102*2040.724726 
102*2040.724726 102*2039.014137 
102*2039.014137 102*2037.303548 
102*2037.303548 102*2035.592958 
102*2035.592958 102*2033.882369 
102*2033.882369 102*2032.171779 
102*2032.171779 102*2030.461190 
102*2030.461190 102*2028.750600 
102*2028.750600 102*2027.040011 
102*2027.040011 102*2025.329421 
102*2025.329421 102*2023.618832 
102*2023.618832 102*2021.908242 
102*2021.908242 102*2020.197653 
102*2020.197653 102*2018.487063 
102*2018.487063 102*2016.776474 
102*2016.776474 102*2015.065884 
102*2015.065884 102*2013.355295 
102*2013.355295 102*2011.644705 
102*2011.644705 102*2009.934116 
102*2009.934116 102*2008.223526 
102*2008.223526 102*2006.512937 
102*2006.512937 102*2004.802347 
102*2004.802347 102*2003.091758 
102*2003.091758 102*2001.381168 
102*2001.381168 102*1999.670579 
102*1999.670579 102*1997.959989 
102*1997.959989 102*1996.249400 
102*1996.249400 102*1994.538810 
102*1994.538810 102*1992.828221 
102*1992.828221 102*1991.117631 
102*1991.117631 102*1989.407042 
102*1989.407042 102*1987.696452 
102*1987.696452 102*1985.985863 
102*1985.985863 102*1984.275274 
102*1984.275274 102*1982.564684 
102*1982.564684 102*1980.854095 
102*1980.854095 102*1979.143505 
102*1979.143505 102*1977.432916 
102*1977.432916 102*1975.722326 
102*1975.722326 102*1974.011737 
102*1974.011737 102*1972.301147 
102*1972.301147 102*1970.590558 
102*2057.830621 102*2056.120032 
102*2056.120032 102*2054.409442 
102*2054.409442 102*2052.698853 
102*2052.698853 102*2050.988263 
102*2050.988263 102*2049.277674 
102*2049.277674 102*2047.567084 
102*2047.567084 102*2045.856495 
102*2045.856495 102*2044.145905 
102*2044.145905 102*2042.435316 
102*2042.435316 102*2040.724726 
102*2040.724726 102*2039.014137 
102*2039.014137 102*2037.303548 
102*2037.303548 102*2035.592958 
102*2035.592958 102*2033.882369 
102*2033.882369 102*2032.171779 
102*2032.171779 102*2030.461190 
102*2030.461190 102*2028.750600 
102*2028.750600 102*2027.040011 
102*2027.040011 102*2025.329421 
102*2025.329421 102*2023.618832 
102*2023.618832 102*2021.908242 
102*2021.908242 102*2020.197653 
102*2020.197653 102*2018.487063 
102*2018.487063 102*2016.776474 
102*2016.776474 102*2015.065884 
102*2015.065884 102*2013.355295 
102*2013.355295 102*2011.644705 
102*2011.644705 102*2009.934116 
102*2009.934116 102*2008.223526 
102*2008.223526 102*2006.512937 
102*2006.512937 102*2004.802347 
102*2004.802347 102*2003.091758 
102*2003.091758 102*2001.381168 
102*2001.381168 102*1999.670579 
102*1999.670579 102*1997.959989 
102*1997.959989 102*1996.249400 
102*1996.249400 102*1994.538810 
102*1994.538810 102*1992.828221 
102*1992.828221 102*1991.117631 
102*1991.117631 102*1989.407042 
102*1989.407042 102*1987.696452 
102*1987.696452 102*1985.985863 
102*1985.985863 102*1984.275274 
102*1984.275274 102*1982.564684 
102*1982.564684 102*1980.854095 
102*1980.854095 102*1979.143505 
102*1979.143505 102*1977.432916 
102*1977.432916 102*1975.722326 
102*1975.722326 102*1974.011737 
102*1974.011737 102*1972.301147 
102*1972.301147 102*1970.590558 
102*2060.330621 102*2058.620032 
102*2058.620032 102*2056.909442 
102*2056.909442 102*2055.198853 
102*2055.198853 102*2053.488263 
102*2053.488263 102*2051.777674 
102*2051.777674 102*2050.067084 
102*2050.067084 102*2048.356495 
102*2048.356495 102*2046.645905 
102*2046.645905 102*2044.935316 
102*2044.935316 102*2043.224726 
102*2043.224726 102*2041.514137 
102*2041.514137 102*2039.803548 
102*2039.803548 102*2038.092958 
102*2038.092958 102*2036.382369 
102*2036.382369 102*2034.671779 
102*2034.671779 102*2032.961190 
102*2032.961190 102*2031.250600 
102*2031.250600 102*2029.540011 
102*2029.540011 102*2027.829421 
102*2027.829421 102*2026.118832 
102*2026.118832 102*2024.408242 
102*2024.408242 102*2022.697653 
102*2022.697653 102*2020.987063 
102*2020.987063 102*2019.276474 
102*2019.276474 102*2017.565884 
102*2017.565884 102*2015.855295 
102*2015.855295 102*2014.144705 
102*2014.144705 102*2012.434116 
102*2012.434116 102*2010.723526 
102*2010.723526 102*2009.012937 
102*2009.012937 102*2007.302347 
102*2007.302347 102*2005.591758 
102*2005.591758 102*2003.881168 
102*2003.881168 102*2002.170579 
102*2002.170579 102*2000.459989 
102*2000.459989 102*1998.749400 
102*1998.749400 102*1997.038810 
102*1997.038810 102*1995.328221 
102*1995.328221 102*1993.617631 
102*1993.617631 102*1991.907042 
102*1991.907042 102*1990.196452 
102*1990.196452 102*1988.485863 
102*1988.485863 102*1986.775274 
102*1986.775274 102*1985.064684 
102*1985.064684 102*1983.354095 
102*1983.354095 102*1981.643505 
102*1981.643505 102*1979.932916 
102*1979.932916 102*1978.222326 
102*1978.222326 102*1976.511737 
102*1976.511737 102*1974.801147 
102*1974.801147 102*1973.090558 
102*2060.330621 102*2058.620032 
102*2058.620032 102*2056.909442 
102*2056.909442 102*2055.198853 
102*2055.198853 102*2053.488263 
102*2053.488263 102*2051.777674 
102*2051.777674 102*2050.067084 
102*2050.067084 102*2048.356495 
102*2048.356495 102*2046.645905 
102*2046.645905 102*2044.935316 
102*2044.935316 102*2043.224726 
102*2043.224726 102*2041.514137 
102*2041.514137 102*2039.803548 
102*2039.803548 102*2038.092958 
102*2038.092958 102*2036.382369 
102*2036.382369 102*2034.671779 
102*2034.671779 102*2032.961190 
102*2032.961190 102*2031.250600 
102*2031.250600 102*2029.540011 
102*2029.540011 102*2027.829421 
102*2027.829421 102*2026.118832 
102*2026.118832 102*2024.408242 
102*2024.408242 102*2022.697653 
102*2022.697653 102*2020.987063 
102*2020.987063 102*2019.276474 
102*2019.276474 102*2017.565884 
102*2017.565884 102*2015.855295 
102*2015.855295 102*2014.144705 
102*2014.144705 102*2012.434116 
102*2012.434116 102*2010.723526 
102*2010.723526 102*2009.012937 
102*2009.012937 102*2007.302347 
102*2007.302347 102*2005.591758 
102*2005.591758 102*2003.881168 
102*2003.881168 102*2002.170579 
102*2002.170579 102*2000.459989 
102*2000.459989 102*1998.749400 
102*1998.749400 102*1997.038810 
102*1997.038810 102*1995.328221 
102*1995.328221 102*1993.617631 
102*1993.617631 102*1991.907042 
102*1991.907042 102*1990.196452 
102*1990.196452 102*1988.485863 
102*1988.485863 102*1986.775274 
102*1986.775274 102*1985.064684 
102*1985.064684 102*1983.354095 
102*1983.354095 102*1981.643505 
102*1981.643505 102*1979.932916 
102*1979.932916 102*1978.222326 
102*1978.222326 102*1976.511737 
102*1976.511737 102*1974.801147 
102*1974.801147 102*1973.090558 
102*2062.830621 102*2061.120032 
102*2061.120032 102*2059.409442 
102*2059.409442 102*2057.698853 
102*2057.698853 102*2055.988263 
102*2055.988263 102*2054.277674 
102*2054.277674 102*2052.567084 
102*2052.567084 102*2050.856495 
102*2050.856495 102*2049.145905 
102*2049.145905 102*2047.435316 
102*2047.435316 102*2045.724726 
102*2045.724726 102*2044.014137 
102*2044.014137 102*2042.303548 
102*2042.303548 102*2040.592958 
102*2040.592958 102*2038.882369 
102*2038.882369 102*2037.171779 
102*2037.171779 102*2035.461190 
102*2035.461190 102*2033.750600 
102*2033.750600 102*2032.040011 
102*2032.040011 102*2030.329421 
102*2030.329421 102*2028.618832 
102*2028.618832 102*2026.908242 
102*2026.908242 102*2025.197653 
102*2025.197653 102*2023.487063 
102*2023.487063 102*2021.776474 
102*2021.776474 102*2020.065884 
102*2020.065884 102*2018.355295 
102*2018.355295 102*2016.644705 
102*2016.644705 102*2014.934116 
102*2014.934116 102*2013.223526 
102*2013.223526 102*2011.512937 
102*2011.512937 102*2009.802347 
102*2009.802347 102*2008.091758 
102*2008.091758 102*2006.381168 
102*2006.381168 102*2004.670579 
102*2004.670579 102*2002.959989 
102*2002.959989 102*2001.249400 
102*2001.249400 102*1999.538810 
102*1999.538810 102*1997.828221 
102*1997.828221 102*1996.117631 
102*1996.117631 102*1994.407042 
102*1994.407042 102*1992.696452 
102*1992.696452 102*1990.985863 
102*1990.985863 102*1989.275274 
102*1989.275274 102*1987.564684 
102*1987.564684 102*1985.854095 
102*1985.854095 102*1984.143505 
102*1984.143505 102*1982.432916 
102*1982.432916 102*1980.722326 
102*1980.722326 102*1979.011737 
102*1979.011737 102*1977.301147 
102*1977.301147 102*1975.590558 
102*2062.830621 102*2061.120032 
102*2061.120032 102*2059.409442 
102*2059.409442 102*2057.698853 
102*2057.698853 102*2055.988263 
102*2055.988263 102*2054.277674 
102*2054.277674 102*2052.567084 
102*2052.567084 102*2050.856495 
102*2050.856495 102*2049.145905 
102*2049.145905 102*2047.435316 
102*2047.435316 102*2045.724726 
102*2045.724726 102*2044.014137 
102*2044.014137 102*2042.303548 
102*2042.303548 102*2040.592958 
102*2040.592958 102*2038.882369 
102*2038.882369 102*2037.171779 
102*2037.171779 102*2035.461190 
102*2035.461190 102*2033.750600 
102*2033.750600 102*2032.040011 
102*2032.040011 102*2030.329421 
102*2030.329421 102*2028.618832 
102*2028.618832 102*2026.908242 
102*2026.908242 102*2025.197653 
102*2025.197653 102*2023.487063 
102*2023.487063 102*2021.776474 
102*2021.776474 102*2020.065884 
102*2020.065884 102*2018.355295 
102*2018.355295 102*2016.644705 
102*2016.644705 102*2014.934116 
102*2014.934116 102*2013.223526 
102*2013.223526 102*2011.512937 
102*2011.512937 102*2009.802347 
102*2009.802347 102*2008.091758 
102*2008.091758 102*2006.381168 
102*2006.381168 102*2004.670579 
102*2004.670579 102*2002.959989 
102*2002.959989 102*2001.249400 
102*2001.249400 102*1999.538810 
102*1999.538810 102*1997.828221 
102*1997.828221 102*1996.117631 
102*1996.117631 102*1994.407042 
102*1994.407042 102*1992.696452 
102*1992.696452 102*1990.985863 
102*1990.985863 102*1989.275274 
102*1989.275274 102*1987.564684 
102*1987.564684 102*1985.854095 
102*1985.854095 102*1984.143505 
102*1984.143505 102*1982.432916 
102*1982.432916 102*1980.722326 
102*1980.722326 102*1979.011737 
102*1979.011737 102*1977.301147 
102*1977.301147 102*1975.590558 
102*2065.330621 102*2063.620032 
102*2063.620032 102*2061.909442 
102*2061.909442 102*2060.198853 
102*2060.198853 102*2058.488263 
102*2058.488263 102*2056.777674 
102*2056.777674 102*2055.067084 
102*2055.067084 102*2053.356495 
102*2053.356495 102*2051.645905 
102*2051.645905 102*2049.935316 
102*2049.935316 102*2048.224726 
102*2048.224726 102*2046.514137 
102*2046.514137 102*2044.803548 
102*2044.803548 102*2043.092958 
102*2043.092958 102*2041.382369 
102*2041.382369 102*2039.671779 
102*2039.671779 102*2037.961190 
102*2037.961190 102*2036.250600 
102*2036.250600 102*2034.540011 
102*2034.540011 102*2032.829421 
102*2032.829421 102*2031.118832 
102*2031.118832 102*2029.408242 
102*2029.408242 102*2027.697653 
102*2027.697653 102*2025.987063 
102*2025.987063 102*2024.276474 
102*2024.276474 102*2022.565884 
102*2022.565884 102*2020.855295 
102*2020.855295 102*2019.144705 
102*2019.144705 102*2017.434116 
102*2017.434116 102*2015.723526 
102*2015.723526 102*2014.012937 
102*2014.012937 102*2012.302347 
102*2012.302347 102*2010.591758 
102*2010.591758 102*2008.881168 
102*2008.881168 102*2007.170579 
102*2007.170579 102*2005.459989 
102*2005.459989 102*2003.749400 
102*2003.749400 102*2002.038810 
102*2002.038810 102*2000.328221 
102*2000.328221 102*1998.617631 
102*1998.617631 102*1996.907042 
102*1996.907042 102*1995.196452 
102*1995.196452 102*1993.485863 
102*1993.485863 102*1991.775274 
102*1991.775274 102*1990.064684 
102*1990.064684 102*1988.354095 
102*1988.354095 102*1986.643505 
102*1986.643505 102*1984.932916 
102*1984.932916 102*1983.222326 
102*1983.222326 102*1981.511737 
102*1981.511737 102*1979.801147 
102*1979.801147 102*1978.090558 
102*2065.330621 102*2063.620032 
102*2063.620032 102*2061.909442 
102*2061.909442 102*2060.198853 
102*2060.198853 102*2058.488263 
102*2058.488263 102*2056.777674 
102*2056.777674 102*2055.067084 
102*2055.067084 102*2053.356495 
102*2053.356495 102*2051.645905 
102*2051.645905 102*2049.935316 
102*2049.935316 102*2048.224726 
102*2048.224726 102*2046.514137 
102*2046.514137 102*2044.803548 
102*2044.803548 102*2043.092958 
102*2043.092958 102*2041.382369 
102*2041.382369 102*2039.671779 
102*2039.671779 102*2037.961190 
102*2037.961190 102*2036.250600 
102*2036.250600 102*2034.540011 
102*2034.540011 102*2032.829421 
102*2032.829421 102*2031.118832 
102*2031.118832 102*2029.408242 
102*2029.408242 102*2027.697653 
102*2027.697653 102*2025.987063 
102*2025.987063 102*2024.276474 
102*2024.276474 102*2022.565884 
102*2022.565884 102*2020.855295 
102*2020.855295 102*2019.144705 
102*2019.144705 102*2017.434116 
102*2017.434116 102*2015.723526 
102*2015.723526 102*2014.012937 
102*2014.012937 102*2012.302347 
102*2012.302347 102*2010.591758 
102*2010.591758 102*2008.881168 
102*2008.881168 102*2007.170579 
102*2007.170579 102*2005.459989 
102*2005.459989 102*2003.749400 
102*2003.749400 102*2002.038810 
102*2002.038810 102*2000.328221 
102*2000.328221 102*1998.617631 
102*1998.617631 102*1996.907042 
102*1996.907042 102*1995.196452 
102*1995.196452 102*1993.485863 
102*1993.485863 102*1991.775274 
102*1991.775274 102*1990.064684 
102*1990.064684 102*1988.354095 
102*1988.354095 102*1986.643505 
102*1986.643505 102*1984.932916 
102*1984.932916 102*1983.222326 
102*1983.222326 102*1981.511737 
102*1981.511737 102*1979.801147 
102*1979.801147 102*1978.090558 
102*2067.830621 102*2066.120032 
102*2066.120032 102*2064.409442 
102*2064.409442 102*2062.698853 
102*2062.698853 102*2060.988263 
102*2060.988263 102*2059.277674 
102*2059.277674 102*2057.567084 
102*2057.567084 102*2055.856495 
102*2055.856495 102*2054.145905 
102*2054.145905 102*2052.435316 
102*2052.435316 102*2050.724726 
102*2050.724726 102*2049.014137 
102*2049.014137 102*2047.303548 
102*2047.303548 102*2045.592958 
102*2045.592958 102*2043.882369 
102*2043.882369 102*2042.171779 
102*2042.171779 102*2040.461190 
102*2040.461190 102*2038.750600 
102*2038.750600 102*2037.040011 
102*2037.040011 102*2035.329421 
102*2035.329421 102*2033.618832 
102*2033.618832 102*2031.908242 
102*2031.908242 102*2030.197653 
102*2030.197653 102*2028.487063 
102*2028.487063 102*2026.776474 
102*2026.776474 102*2025.065884 
102*2025.065884 102*2023.355295 
102*2023.355295 102*2021.644705 
102*2021.644705 102*2019.934116 
102*2019.934116 102*2018.223526 
102*2018.223526 102*2016.512937 
102*2016.512937 102*2014.802347 
102*2014.802347 102*2013.091758 
102*2013.091758 102*2011.381168 
102*2011.381168 102*2009.670579 
102*2009.670579 102*2007.959989 
102*2007.959989 102*2006.249400 
102*2006.249400 102*2004.538810 
102*2004.538810 102*2002.828221 
102*2002.828221 102*2001.117631 
102*2001.117631 102*1999.407042 
102*1999.407042 102*1997.696452 