ZCORN
102*2055.509587 102*2053.414885 
102*2053.414885 102*2051.320184 
102*2051.320184 102*2049.225483 
102*2049.225483 102*2047.130781 
102*2047.130781 102*2045.036080 
102*2045.036080 102*2042.941379 
102*2042.941379 102*2040.846677 
102*2040.846677 102*2038.751976 
102*2038.751976 102*2036.657274 
102*2036.657274 102*2034.562573 
102*2034.562573 102*2032.467872 
102*2032.467872 102*2030.373170 
102*2030.373170 102*2028.278469 
102*2028.278469 102*2026.183767 
102*2026.183767 102*2024.089066 
102*2024.089066 102*2021.994365 
102*2021.994365 102*2019.899663 
102*2019.899663 102*2017.804962 
102*2017.804962 102*2015.710260 
102*2015.710260 102*2013.615559 
102*2013.615559 102*2011.520858 
102*2011.520858 102*2009.426156 
102*2009.426156 102*2007.331455 
102*2007.331455 102*2005.236753 
102*2005.236753 102*2003.142052 
102*2003.142052 102*2001.047351 
102*2001.047351 102*1998.952649 
102*1998.952649 102*1996.857948 
102*1996.857948 102*1994.763247 
102*1994.763247 102*1992.668545 
102*1992.668545 102*1990.573844 
102*1990.573844 102*1988.479142 
102*1988.479142 102*1986.384441 
102*1986.384441 102*1984.289740 
102*1984.289740 102*1982.195038 
102*1982.195038 102*1980.100337 
102*1980.100337 102*1978.005635 
102*1978.005635 102*1975.910934 
102*1975.910934 102*1973.816233 
102*1973.816233 102*1971.721531 
102*1971.721531 102*1969.626830 
102*1969.626830 102*1967.532128 
102*1967.532128 102*1965.437427 
102*1965.437427 102*1963.342726 
102*1963.342726 102*1961.248024 
102*1961.248024 102*1959.153323 
102*1959.153323 102*1957.058621 
102*1957.058621 102*1954.963920 
102*1954.963920 102*1952.869219 
102*1952.869219 102*1950.774517 
102*1950.774517 102*1948.679816 
102*2058.009587 102*2055.914885 
102*2055.914885 102*2053.820184 
102*2053.820184 102*2051.725483 
102*2051.725483 102*2049.630781 
102*2049.630781 102*2047.536080 
102*2047.536080 102*2045.441379 
102*2045.441379 102*2043.346677 
102*2043.346677 102*2041.251976 
102*2041.251976 102*2039.157274 
102*2039.157274 102*2037.062573 
102*2037.062573 102*2034.967872 
102*2034.967872 102*2032.873170 
102*2032.873170 102*2030.778469 
102*2030.778469 102*2028.683767 
102*2028.683767 102*2026.589066 
102*2026.589066 102*2024.494365 
102*2024.494365 102*2022.399663 
102*2022.399663 102*2020.304962 
102*2020.304962 102*2018.210260 
102*2018.210260 102*2016.115559 
102*2016.115559 102*2014.020858 
102*2014.020858 102*2011.926156 
102*2011.926156 102*2009.831455 
102*2009.831455 102*2007.736753 
102*2007.736753 102*2005.642052 
102*2005.642052 102*2003.547351 
102*2003.547351 102*2001.452649 
102*2001.452649 102*1999.357948 
102*1999.357948 102*1997.263247 
102*1997.263247 102*1995.168545 
102*1995.168545 102*1993.073844 
102*1993.073844 102*1990.979142 
102*1990.979142 102*1988.884441 
102*1988.884441 102*1986.789740 
102*1986.789740 102*1984.695038 
102*1984.695038 102*1982.600337 
102*1982.600337 102*1980.505635 
102*1980.505635 102*1978.410934 
102*1978.410934 102*1976.316233 
102*1976.316233 102*1974.221531 
102*1974.221531 102*1972.126830 
102*1972.126830 102*1970.032128 
102*1970.032128 102*1967.937427 
102*1967.937427 102*1965.842726 
102*1965.842726 102*1963.748024 
102*1963.748024 102*1961.653323 
102*1961.653323 102*1959.558621 
102*1959.558621 102*1957.463920 
102*1957.463920 102*1955.369219 
102*1955.369219 102*1953.274517 
102*1953.274517 102*1951.179816 
102*2058.009587 102*2055.914885 
102*2055.914885 102*2053.820184 
102*2053.820184 102*2051.725483 
102*2051.725483 102*2049.630781 
102*2049.630781 102*2047.536080 
102*2047.536080 102*2045.441379 
102*2045.441379 102*2043.346677 
102*2043.346677 102*2041.251976 
102*2041.251976 102*2039.157274 
102*2039.157274 102*2037.062573 
102*2037.062573 102*2034.967872 
102*2034.967872 102*2032.873170 
102*2032.873170 102*2030.778469 
102*2030.778469 102*2028.683767 
102*2028.683767 102*2026.589066 
102*2026.589066 102*2024.494365 
102*2024.494365 102*2022.399663 
102*2022.399663 102*2020.304962 
102*2020.304962 102*2018.210260 
102*2018.210260 102*2016.115559 
102*2016.115559 102*2014.020858 
102*2014.020858 102*2011.926156 
102*2011.926156 102*2009.831455 
102*2009.831455 102*2007.736753 
102*2007.736753 102*2005.642052 
102*2005.642052 102*2003.547351 
102*2003.547351 102*2001.452649 
102*2001.452649 102*1999.357948 
102*1999.357948 102*1997.263247 
102*1997.263247 102*1995.168545 
102*1995.168545 102*1993.073844 
102*1993.073844 102*1990.979142 
102*1990.979142 102*1988.884441 
102*1988.884441 102*1986.789740 
102*1986.789740 102*1984.695038 
102*1984.695038 102*1982.600337 
102*1982.600337 102*1980.505635 
102*1980.505635 102*1978.410934 
102*1978.410934 102*1976.316233 
102*1976.316233 102*1974.221531 
102*1974.221531 102*1972.126830 
102*1972.126830 102*1970.032128 
102*1970.032128 102*1967.937427 
102*1967.937427 102*1965.842726 
102*1965.842726 102*1963.748024 
102*1963.748024 102*1961.653323 
102*1961.653323 102*1959.558621 
102*1959.558621 102*1957.463920 
102*1957.463920 102*1955.369219 
102*1955.369219 102*1953.274517 
102*1953.274517 102*1951.179816 
102*2060.509587 102*2058.414885 
102*2058.414885 102*2056.320184 
102*2056.320184 102*2054.225483 
102*2054.225483 102*2052.130781 
102*2052.130781 102*2050.036080 
102*2050.036080 102*2047.941379 
102*2047.941379 102*2045.846677 
102*2045.846677 102*2043.751976 
102*2043.751976 102*2041.657274 
102*2041.657274 102*2039.562573 
102*2039.562573 102*2037.467872 
102*2037.467872 102*2035.373170 
102*2035.373170 102*2033.278469 
102*2033.278469 102*2031.183767 
102*2031.183767 102*2029.089066 
102*2029.089066 102*2026.994365 
102*2026.994365 102*2024.899663 
102*2024.899663 102*2022.804962 
102*2022.804962 102*2020.710260 
102*2020.710260 102*2018.615559 
102*2018.615559 102*2016.520858 
102*2016.520858 102*2014.426156 
102*2014.426156 102*2012.331455 
102*2012.331455 102*2010.236753 
102*2010.236753 102*2008.142052 
102*2008.142052 102*2006.047351 
102*2006.047351 102*2003.952649 
102*2003.952649 102*2001.857948 
102*2001.857948 102*1999.763247 
102*1999.763247 102*1997.668545 
102*1997.668545 102*1995.573844 
102*1995.573844 102*1993.479142 
102*1993.479142 102*1991.384441 
102*1991.384441 102*1989.289740 
102*1989.289740 102*1987.195038 
102*1987.195038 102*1985.100337 
102*1985.100337 102*1983.005635 
102*1983.005635 102*1980.910934 
102*1980.910934 102*1978.816233 
102*1978.816233 102*1976.721531 
102*1976.721531 102*1974.626830 
102*1974.626830 102*1972.532128 
102*1972.532128 102*1970.437427 
102*1970.437427 102*1968.342726 
102*1968.342726 102*1966.248024 
102*1966.248024 102*1964.153323 
102*1964.153323 102*1962.058621 
102*1962.058621 102*1959.963920 
102*1959.963920 102*1957.869219 
102*1957.869219 102*1955.774517 
102*1955.774517 102*1953.679816 
102*2060.509587 102*2058.414885 
102*2058.414885 102*2056.320184 
102*2056.320184 102*2054.225483 
102*2054.225483 102*2052.130781 
102*2052.130781 102*2050.036080 
102*2050.036080 102*2047.941379 
102*2047.941379 102*2045.846677 
102*2045.846677 102*2043.751976 
102*2043.751976 102*2041.657274 
102*2041.657274 102*2039.562573 
102*2039.562573 102*2037.467872 
102*2037.467872 102*2035.373170 
102*2035.373170 102*2033.278469 
102*2033.278469 102*2031.183767 
102*2031.183767 102*2029.089066 
102*2029.089066 102*2026.994365 
102*2026.994365 102*2024.899663 
102*2024.899663 102*2022.804962 
102*2022.804962 102*2020.710260 
102*2020.710260 102*2018.615559 
102*2018.615559 102*2016.520858 
102*2016.520858 102*2014.426156 
102*2014.426156 102*2012.331455 
102*2012.331455 102*2010.236753 
102*2010.236753 102*2008.142052 
102*2008.142052 102*2006.047351 
102*2006.047351 102*2003.952649 
102*2003.952649 102*2001.857948 
102*2001.857948 102*1999.763247 
102*1999.763247 102*1997.668545 
102*1997.668545 102*1995.573844 
102*1995.573844 102*1993.479142 
102*1993.479142 102*1991.384441 
102*1991.384441 102*1989.289740 
102*1989.289740 102*1987.195038 
102*1987.195038 102*1985.100337 
102*1985.100337 102*1983.005635 
102*1983.005635 102*1980.910934 
102*1980.910934 102*1978.816233 
102*1978.816233 102*1976.721531 
102*1976.721531 102*1974.626830 
102*1974.626830 102*1972.532128 
102*1972.532128 102*1970.437427 
102*1970.437427 102*1968.342726 
102*1968.342726 102*1966.248024 
102*1966.248024 102*1964.153323 
102*1964.153323 102*1962.058621 
102*1962.058621 102*1959.963920 
102*1959.963920 102*1957.869219 
102*1957.869219 102*1955.774517 
102*1955.774517 102*1953.679816 
102*2063.009587 102*2060.914885 
102*2060.914885 102*2058.820184 
102*2058.820184 102*2056.725483 
102*2056.725483 102*2054.630781 
102*2054.630781 102*2052.536080 
102*2052.536080 102*2050.441379 
102*2050.441379 102*2048.346677 
102*2048.346677 102*2046.251976 
102*2046.251976 102*2044.157274 
102*2044.157274 102*2042.062573 
102*2042.062573 102*2039.967872 
102*2039.967872 102*2037.873170 
102*2037.873170 102*2035.778469 
102*2035.778469 102*2033.683767 
102*2033.683767 102*2031.589066 
102*2031.589066 102*2029.494365 
102*2029.494365 102*2027.399663 
102*2027.399663 102*2025.304962 
102*2025.304962 102*2023.210260 
102*2023.210260 102*2021.115559 
102*2021.115559 102*2019.020858 
102*2019.020858 102*2016.926156 
102*2016.926156 102*2014.831455 
102*2014.831455 102*2012.736753 
102*2012.736753 102*2010.642052 
102*2010.642052 102*2008.547351 
102*2008.547351 102*2006.452649 
102*2006.452649 102*2004.357948 
102*2004.357948 102*2002.263247 
102*2002.263247 102*2000.168545 
102*2000.168545 102*1998.073844 
102*1998.073844 102*1995.979142 
102*1995.979142 102*1993.884441 
102*1993.884441 102*1991.789740 
102*1991.789740 102*1989.695038 
102*1989.695038 102*1987.600337 
102*1987.600337 102*1985.505635 
102*1985.505635 102*1983.410934 
102*1983.410934 102*1981.316233 
102*1981.316233 102*1979.221531 
102*1979.221531 102*1977.126830 
102*1977.126830 102*1975.032128 
102*1975.032128 102*1972.937427 
102*1972.937427 102*1970.842726 
102*1970.842726 102*1968.748024 
102*1968.748024 102*1966.653323 
102*1966.653323 102*1964.558621 
102*1964.558621 102*1962.463920 
102*1962.463920 102*1960.369219 
102*1960.369219 102*1958.274517 
102*1958.274517 102*1956.179816 
102*2063.009587 102*2060.914885 
102*2060.914885 102*2058.820184 
102*2058.820184 102*2056.725483 
102*2056.725483 102*2054.630781 
102*2054.630781 102*2052.536080 
102*2052.536080 102*2050.441379 
102*2050.441379 102*2048.346677 
102*2048.346677 102*2046.251976 
102*2046.251976 102*2044.157274 
102*2044.157274 102*2042.062573 
102*2042.062573 102*2039.967872 
102*2039.967872 102*2037.873170 
102*2037.873170 102*2035.778469 
102*2035.778469 102*2033.683767 
102*2033.683767 102*2031.589066 
102*2031.589066 102*2029.494365 
102*2029.494365 102*2027.399663 
102*2027.399663 102*2025.304962 
102*2025.304962 102*2023.210260 
102*2023.210260 102*2021.115559 
102*2021.115559 102*2019.020858 
102*2019.020858 102*2016.926156 
102*2016.926156 102*2014.831455 
102*2014.831455 102*2012.736753 
102*2012.736753 102*2010.642052 
102*2010.642052 102*2008.547351 
102*2008.547351 102*2006.452649 
102*2006.452649 102*2004.357948 
102*2004.357948 102*2002.263247 
102*2002.263247 102*2000.168545 
102*2000.168545 102*1998.073844 
102*1998.073844 102*1995.979142 
102*1995.979142 102*1993.884441 
102*1993.884441 102*1991.789740 
102*1991.789740 102*1989.695038 
102*1989.695038 102*1987.600337 
102*1987.600337 102*1985.505635 
102*1985.505635 102*1983.410934 
102*1983.410934 102*1981.316233 
102*1981.316233 102*1979.221531 
102*1979.221531 102*1977.126830 
102*1977.126830 102*1975.032128 
102*1975.032128 102*1972.937427 
102*1972.937427 102*1970.842726 
102*1970.842726 102*1968.748024 
102*1968.748024 102*1966.653323 
102*1966.653323 102*1964.558621 
102*1964.558621 102*1962.463920 
102*1962.463920 102*1960.369219 
102*1960.369219 102*1958.274517 
102*1958.274517 102*1956.179816 
102*2065.509587 102*2063.414885 
102*2063.414885 102*2061.320184 
102*2061.320184 102*2059.225483 
102*2059.225483 102*2057.130781 
102*2057.130781 102*2055.036080 
102*2055.036080 102*2052.941379 
102*2052.941379 102*2050.846677 
102*2050.846677 102*2048.751976 
102*2048.751976 102*2046.657274 
102*2046.657274 102*2044.562573 
102*2044.562573 102*2042.467872 
102*2042.467872 102*2040.373170 
102*2040.373170 102*2038.278469 
102*2038.278469 102*2036.183767 
102*2036.183767 102*2034.089066 
102*2034.089066 102*2031.994365 
102*2031.994365 102*2029.899663 
102*2029.899663 102*2027.804962 
102*2027.804962 102*2025.710260 
102*2025.710260 102*2023.615559 
102*2023.615559 102*2021.520858 
102*2021.520858 102*2019.426156 
102*2019.426156 102*2017.331455 
102*2017.331455 102*2015.236753 
102*2015.236753 102*2013.142052 
102*2013.142052 102*2011.047351 
102*2011.047351 102*2008.952649 
102*2008.952649 102*2006.857948 
102*2006.857948 102*2004.763247 
102*2004.763247 102*2002.668545 
102*2002.668545 102*2000.573844 
102*2000.573844 102*1998.479142 
102*1998.479142 102*1996.384441 
102*1996.384441 102*1994.289740 
102*1994.289740 102*1992.195038 
102*1992.195038 102*1990.100337 
102*1990.100337 102*1988.005635 
102*1988.005635 102*1985.910934 
102*1985.910934 102*1983.816233 
102*1983.816233 102*1981.721531 
102*1981.721531 102*1979.626830 
102*1979.626830 102*1977.532128 
102*1977.532128 102*1975.437427 
102*1975.437427 102*1973.342726 
102*1973.342726 102*1971.248024 
102*1971.248024 102*1969.153323 
102*1969.153323 102*1967.058621 
102*1967.058621 102*1964.963920 
102*1964.963920 102*1962.869219 
102*1962.869219 102*1960.774517 
102*1960.774517 102*1958.679816 
102*2065.509587 102*2063.414885 
102*2063.414885 102*2061.320184 
102*2061.320184 102*2059.225483 
102*2059.225483 102*2057.130781 
102*2057.130781 102*2055.036080 
102*2055.036080 102*2052.941379 
102*2052.941379 102*2050.846677 
102*2050.846677 102*2048.751976 
102*2048.751976 102*2046.657274 
102*2046.657274 102*2044.562573 
102*2044.562573 102*2042.467872 
102*2042.467872 102*2040.373170 
102*2040.373170 102*2038.278469 
102*2038.278469 102*2036.183767 
102*2036.183767 102*2034.089066 
102*2034.089066 102*2031.994365 
102*2031.994365 102*2029.899663 
102*2029.899663 102*2027.804962 
102*2027.804962 102*2025.710260 
102*2025.710260 102*2023.615559 
102*2023.615559 102*2021.520858 
102*2021.520858 102*2019.426156 
102*2019.426156 102*2017.331455 
102*2017.331455 102*2015.236753 
102*2015.236753 102*2013.142052 
102*2013.142052 102*2011.047351 
102*2011.047351 102*2008.952649 
102*2008.952649 102*2006.857948 
102*2006.857948 102*2004.763247 
102*2004.763247 102*2002.668545 
102*2002.668545 102*2000.573844 
102*2000.573844 102*1998.479142 
102*1998.479142 102*1996.384441 
102*1996.384441 102*1994.289740 
102*1994.289740 102*1992.195038 
102*1992.195038 102*1990.100337 
102*1990.100337 102*1988.005635 
102*1988.005635 102*1985.910934 
102*1985.910934 102*1983.816233 
102*1983.816233 102*1981.721531 
102*1981.721531 102*1979.626830 
102*1979.626830 102*1977.532128 
102*1977.532128 102*1975.437427 
102*1975.437427 102*1973.342726 
102*1973.342726 102*1971.248024 
102*1971.248024 102*1969.153323 
102*1969.153323 102*1967.058621 
102*1967.058621 102*1964.963920 
102*1964.963920 102*1962.869219 
102*1962.869219 102*1960.774517 
102*1960.774517 102*1958.679816 
102*2068.009587 102*2065.914885 
102*2065.914885 102*2063.820184 
102*2063.820184 102*2061.725483 
102*2061.725483 102*2059.630781 
102*2059.630781 102*2057.536080 
102*2057.536080 102*2055.441379 
102*2055.441379 102*2053.346677 
102*2053.346677 102*2051.251976 
102*2051.251976 102*2049.157274 
102*2049.157274 102*2047.062573 
102*2047.062573 102*2044.967872 
102*2044.967872 102*2042.873170 
102*2042.873170 102*2040.778469 
102*2040.778469 102*2038.683767 
102*2038.683767 102*2036.589066 
102*2036.589066 102*2034.494365 
102*2034.494365 102*2032.399663 
102*2032.399663 102*2030.304962 
102*2030.304962 102*2028.210260 
102*2028.210260 102*2026.115559 
102*2026.115559 102*2024.020858 
102*2024.020858 102*2021.926156 
102*2021.926156 102*2019.831455 
102*2019.831455 102*2017.736753 
102*2017.736753 102*2015.642052 
102*2015.642052 102*2013.547351 
102*2013.547351 102*2011.452649 
102*2011.452649 102*2009.357948 
102*2009.357948 102*2007.263247 
102*2007.263247 102*2005.168545 
102*2005.168545 102*2003.073844 
102*2003.073844 102*2000.979142 
102*2000.979142 102*1998.884441 
102*1998.884441 102*1996.789740 
102*1996.789740 102*1994.695038 
102*1994.695038 102*1992.600337 
102*1992.600337 102*1990.505635 
102*1990.505635 102*1988.410934 
102*1988.410934 102*1986.316233 
102*1986.316233 102*1984.221531 
102*1984.221531 102*1982.126830 
102*1982.126830 102*1980.032128 
102*1980.032128 102*1977.937427 
102*1977.937427 102*1975.842726 
102*1975.842726 102*1973.748024 
102*1973.748024 102*1971.653323 
102*1971.653323 102*1969.558621 
102*1969.558621 102*1967.463920 
102*1967.463920 102*1965.369219 
102*1965.369219 102*1963.274517 
102*1963.274517 102*1961.179816 
102*2068.009587 102*2065.914885 
102*2065.914885 102*2063.820184 
102*2063.820184 102*2061.725483 
102*2061.725483 102*2059.630781 
102*2059.630781 102*2057.536080 
102*2057.536080 102*2055.441379 
102*2055.441379 102*2053.346677 
102*2053.346677 102*2051.251976 
102*2051.251976 102*2049.157274 
102*2049.157274 102*2047.062573 
102*2047.062573 102*2044.967872 
102*2044.967872 102*2042.873170 
102*2042.873170 102*2040.778469 
102*2040.778469 102*2038.683767 
102*2038.683767 102*2036.589066 
102*2036.589066 102*2034.494365 
102*2034.494365 102*2032.399663 
102*2032.399663 102*2030.304962 
102*2030.304962 102*2028.210260 
102*2028.210260 102*2026.115559 
102*2026.115559 102*2024.020858 
102*2024.020858 102*2021.926156 
102*2021.926156 102*2019.831455 
102*2019.831455 102*2017.736753 
102*2017.736753 102*2015.642052 
102*2015.642052 102*2013.547351 
102*2013.547351 102*2011.452649 
102*2011.452649 102*2009.357948 
102*2009.357948 102*2007.263247 
102*2007.263247 102*2005.168545 
102*2005.168545 102*2003.073844 
102*2003.073844 102*2000.979142 
102*2000.979142 102*1998.884441 
102*1998.884441 102*1996.789740 
102*1996.789740 102*1994.695038 
102*1994.695038 102*1992.600337 
102*1992.600337 102*1990.505635 
102*1990.505635 102*1988.410934 
102*1988.410934 102*1986.316233 
102*1986.316233 102*1984.221531 
102*1984.221531 102*1982.126830 
102*1982.126830 102*1980.032128 
102*1980.032128 102*1977.937427 
102*1977.937427 102*1975.842726 
102*1975.842726 102*1973.748024 
102*1973.748024 102*1971.653323 
102*1971.653323 102*1969.558621 
102*1969.558621 102*1967.463920 
102*1967.463920 102*1965.369219 
102*1965.369219 102*1963.274517 
102*1963.274517 102*1961.179816 
102*2070.509587 102*2068.414885 
102*2068.414885 102*2066.320184 
102*2066.320184 102*2064.225483 
102*2064.225483 102*2062.130781 
102*2062.130781 102*2060.036080 
102*2060.036080 102*2057.941379 
102*2057.941379 102*2055.846677 
102*2055.846677 102*2053.751976 
102*2053.751976 102*2051.657274 
102*2051.657274 102*2049.562573 
102*2049.562573 102*2047.467872 
102*2047.467872 102*2045.373170 
102*2045.373170 102*2043.278469 
102*2043.278469 102*2041.183767 
102*2041.183767 102*2039.089066 
102*2039.089066 102*2036.994365 
102*2036.994365 102*2034.899663 
102*2034.899663 102*2032.804962 
102*2032.804962 102*2030.710260 
102*2030.710260 102*2028.615559 
102*2028.615559 102*2026.520858 
102*2026.520858 102*2024.426156 
102*2024.426156 102*2022.331455 
102*2022.331455 102*2020.236753 
102*2020.236753 102*2018.142052 
102*2018.142052 102*2016.047351 
102*2016.047351 102*2013.952649 
102*2013.952649 102*2011.857948 
102*2011.857948 102*2009.763247 
102*2009.763247 102*2007.668545 
102*2007.668545 102*2005.573844 
102*2005.573844 102*2003.479142 
102*2003.479142 102*2001.384441 
102*2001.384441 102*1999.289740 
102*1999.289740 102*1997.195038 
102*1997.195038 102*1995.100337 
102*1995.100337 102*1993.005635 
102*1993.005635 102*1990.910934 
102*1990.910934 102*1988.816233 
102*1988.816233 102*1986.721531 
102*1986.721531 102*1984.626830 
102*1984.626830 102*1982.532128 
102*1982.532128 102*1980.437427 
102*1980.437427 102*1978.342726 
102*1978.342726 102*1976.248024 
102*1976.248024 102*1974.153323 
102*1974.153323 102*1972.058621 
102*1972.058621 102*1969.963920 
102*1969.963920 102*1967.869219 
102*1967.869219 102*1965.774517 
102*1965.774517 102*1963.679816 
102*2070.509587 102*2068.414885 
102*2068.414885 102*2066.320184 
102*2066.320184 102*2064.225483 
102*2064.225483 102*2062.130781 
102*2062.130781 102*2060.036080 
102*2060.036080 102*2057.941379 
102*2057.941379 102*2055.846677 
102*2055.846677 102*2053.751976 
102*2053.751976 102*2051.657274 
102*2051.657274 102*2049.562573 
102*2049.562573 102*2047.467872 
102*2047.467872 102*2045.373170 
102*2045.373170 102*2043.278469 
102*2043.278469 102*2041.183767 
102*2041.183767 102*2039.089066 
102*2039.089066 102*2036.994365 
102*2036.994365 102*2034.899663 
102*2034.899663 102*2032.804962 
102*2032.804962 102*2030.710260 
102*2030.710260 102*2028.615559 
102*2028.615559 102*2026.520858 
102*2026.520858 102*2024.426156 
102*2024.426156 102*2022.331455 
102*2022.331455 102*2020.236753 
102*2020.236753 102*2018.142052 
102*2018.142052 102*2016.047351 
102*2016.047351 102*2013.952649 
102*2013.952649 102*2011.857948 
102*2011.857948 102*2009.763247 
102*2009.763247 102*2007.668545 
102*2007.668545 102*2005.573844 
102*2005.573844 102*2003.479142 
102*2003.479142 102*2001.384441 
102*2001.384441 102*1999.289740 
102*1999.289740 102*1997.195038 
102*1997.195038 102*1995.100337 
102*1995.100337 102*1993.005635 
102*1993.005635 102*1990.910934 
102*1990.910934 102*1988.816233 
102*1988.816233 102*1986.721531 
102*1986.721531 102*1984.626830 
102*1984.626830 102*1982.532128 
102*1982.532128 102*1980.437427 
102*1980.437427 102*1978.342726 
102*1978.342726 102*1976.248024 
102*1976.248024 102*1974.153323 
102*1974.153323 102*1972.058621 
102*1972.058621 102*1969.963920 
102*1969.963920 102*1967.869219 
102*1967.869219 102*1965.774517 
102*1965.774517 102*1963.679816 
102*2073.009587 102*2070.914885 
102*2070.914885 102*2068.820184 
102*2068.820184 102*2066.725483 
102*2066.725483 102*2064.630781 
102*2064.630781 102*2062.536080 
102*2062.536080 102*2060.441379 
102*2060.441379 102*2058.346677 
102*2058.346677 102*2056.251976 
102*2056.251976 102*2054.157274 
102*2054.157274 102*2052.062573 
102*2052.062573 102*2049.967872 
102*2049.967872 102*2047.873170 
102*2047.873170 102*2045.778469 
102*2045.778469 102*2043.683767 
102*2043.683767 102*2041.589066 
102*2041.589066 102*2039.494365 
102*2039.494365 102*2037.399663 
102*2037.399663 102*2035.304962 
102*2035.304962 102*2033.210260 
102*2033.210260 102*2031.115559 
102*2031.115559 102*2029.020858 
102*2029.020858 102*2026.926156 
102*2026.926156 102*2024.831455 
102*2024.831455 102*2022.736753 
102*2022.736753 102*2020.642052 
102*2020.642052 102*2018.547351 
102*2018.547351 102*2016.452649 
102*2016.452649 102*2014.357948 
102*2014.357948 102*2012.263247 
102*2012.263247 102*2010.168545 
102*2010.168545 102*2008.073844 
102*2008.073844 102*2005.979142 
102*2005.979142 102*2003.884441 
102*2003.884441 102*2001.789740 
102*2001.789740 102*1999.695038 
102*1999.695038 102*1997.600337 
102*1997.600337 102*1995.505635 
102*1995.505635 102*1993.410934 
102*1993.410934 102*1991.316233 
102*1991.316233 102*1989.221531 
102*1989.221531 102*1987.126830 
102*1987.126830 102*1985.032128 
102*1985.032128 102*1982.937427 
102*1982.937427 102*1980.842726 
102*1980.842726 102*1978.748024 
102*1978.748024 102*1976.653323 
102*1976.653323 102*1974.558621 
102*1974.558621 102*1972.463920 
102*1972.463920 102*1970.369219 
102*1970.369219 102*1968.274517 
102*1968.274517 102*1966.179816 
102*2073.009587 102*2070.914885 
102*2070.914885 102*2068.820184 
102*2068.820184 102*2066.725483 
102*2066.725483 102*2064.630781 
102*2064.630781 102*2062.536080 
102*2062.536080 102*2060.441379 
102*2060.441379 102*2058.346677 
102*2058.346677 102*2056.251976 
102*2056.251976 102*2054.157274 
102*2054.157274 102*2052.062573 
102*2052.062573 102*2049.967872 
102*2049.967872 102*2047.873170 
102*2047.873170 102*2045.778469 
102*2045.778469 102*2043.683767 
102*2043.683767 102*2041.589066 
102*2041.589066 102*2039.494365 
102*2039.494365 102*2037.399663 
102*2037.399663 102*2035.304962 
102*2035.304962 102*2033.210260 
102*2033.210260 102*2031.115559 
102*2031.115559 102*2029.020858 
102*2029.020858 102*2026.926156 
102*2026.926156 102*2024.831455 
102*2024.831455 102*2022.736753 
102*2022.736753 102*2020.642052 
102*2020.642052 102*2018.547351 
102*2018.547351 102*2016.452649 
102*2016.452649 102*2014.357948 
102*2014.357948 102*2012.263247 
102*2012.263247 102*2010.168545 
102*2010.168545 102*2008.073844 
102*2008.073844 102*2005.979142 
102*2005.979142 102*2003.884441 
102*2003.884441 102*2001.789740 
102*2001.789740 102*1999.695038 
102*1999.695038 102*1997.600337 
102*1997.600337 102*1995.505635 
102*1995.505635 102*1993.410934 
102*1993.410934 102*1991.316233 
102*1991.316233 102*1989.221531 
102*1989.221531 102*1987.126830 
102*1987.126830 102*1985.032128 
102*1985.032128 102*1982.937427 
102*1982.937427 102*1980.842726 
102*1980.842726 102*1978.748024 
102*1978.748024 102*1976.653323 
102*1976.653323 102*1974.558621 
102*1974.558621 102*1972.463920 
102*1972.463920 102*1970.369219 
102*1970.369219 102*1968.274517 
102*1968.274517 102*1966.179816 
102*2075.509587 102*2073.414885 
102*2073.414885 102*2071.320184 
102*2071.320184 102*2069.225483 
102*2069.225483 102*2067.130781 
102*2067.130781 102*2065.036080 
102*2065.036080 102*2062.941379 
102*2062.941379 102*2060.846677 
102*2060.846677 102*2058.751976 
102*2058.751976 102*2056.657274 
102*2056.657274 102*2054.562573 
102*2054.562573 102*2052.467872 
102*2052.467872 102*2050.373170 
102*2050.373170 102*2048.278469 
102*2048.278469 102*2046.183767 
102*2046.183767 102*2044.089066 
102*2044.089066 102*2041.994365 
102*2041.994365 102*2039.899663 
102*2039.899663 102*2037.804962 
102*2037.804962 102*2035.710260 
102*2035.710260 102*2033.615559 
102*2033.615559 102*2031.520858 
102*2031.520858 102*2029.426156 
102*2029.426156 102*2027.331455 
102*2027.331455 102*2025.236753 
102*2025.236753 102*2023.142052 
102*2023.142052 102*2021.047351 
102*2021.047351 102*2018.952649 
102*2018.952649 102*2016.857948 
102*2016.857948 102*2014.763247 
102*2014.763247 102*2012.668545 
102*2012.668545 102*2010.573844 
102*2010.573844 102*2008.479142 
102*2008.479142 102*2006.384441 
102*2006.384441 102*2004.289740 
102*2004.289740 102*2002.195038 
102*2002.195038 102*2000.100337 
102*2000.100337 102*1998.005635 
102*1998.005635 102*1995.910934 
102*1995.910934 102*1993.816233 
102*1993.816233 102*1991.721531 
102*1991.721531 102*1989.626830 
102*1989.626830 102*1987.532128 
102*1987.532128 102*1985.437427 
102*1985.437427 102*1983.342726 
102*1983.342726 102*1981.248024 
102*1981.248024 102*1979.153323 
102*1979.153323 102*1977.058621 
102*1977.058621 102*1974.963920 
102*1974.963920 102*1972.869219 
102*1972.869219 102*1970.774517 
102*1970.774517 102*1968.679816 
102*2075.509587 102*2073.414885 
102*2073.414885 102*2071.320184 
102*2071.320184 102*2069.225483 
102*2069.225483 102*2067.130781 
102*2067.130781 102*2065.036080 
102*2065.036080 102*2062.941379 
102*2062.941379 102*2060.846677 
102*2060.846677 102*2058.751976 
102*2058.751976 102*2056.657274 
102*2056.657274 102*2054.562573 
102*2054.562573 102*2052.467872 
102*2052.467872 102*2050.373170 
102*2050.373170 102*2048.278469 
102*2048.278469 102*2046.183767 
102*2046.183767 102*2044.089066 
102*2044.089066 102*2041.994365 
102*2041.994365 102*2039.899663 
102*2039.899663 102*2037.804962 
102*2037.804962 102*2035.710260 
102*2035.710260 102*2033.615559 
102*2033.615559 102*2031.520858 
102*2031.520858 102*2029.426156 
102*2029.426156 102*2027.331455 
102*2027.331455 102*2025.236753 
102*2025.236753 102*2023.142052 
102*2023.142052 102*2021.047351 
102*2021.047351 102*2018.952649 
102*2018.952649 102*2016.857948 
102*2016.857948 102*2014.763247 
102*2014.763247 102*2012.668545 
102*2012.668545 102*2010.573844 
102*2010.573844 102*2008.479142 
102*2008.479142 102*2006.384441 
102*2006.384441 102*2004.289740 
102*2004.289740 102*2002.195038 
102*2002.195038 102*2000.100337 
102*2000.100337 102*1998.005635 
102*1998.005635 102*1995.910934 
102*1995.910934 102*1993.816233 
102*1993.816233 102*1991.721531 
102*1991.721531 102*1989.626830 
102*1989.626830 102*1987.532128 
102*1987.532128 102*1985.437427 
102*1985.437427 102*1983.342726 
102*1983.342726 102*1981.248024 
102*1981.248024 102*1979.153323 
102*1979.153323 102*1977.058621 
102*1977.058621 102*1974.963920 
102*1974.963920 102*1972.869219 
102*1972.869219 102*1970.774517 
102*1970.774517 102*1968.679816 
102*2078.009587 102*2075.914885 
102*2075.914885 102*2073.820184 
102*2073.820184 102*2071.725483 
102*2071.725483 102*2069.630781 
102*2069.630781 102*2067.536080 
102*2067.536080 102*2065.441379 
102*2065.441379 102*2063.346677 
102*2063.346677 102*2061.251976 
102*2061.251976 102*2059.157274 
102*2059.157274 102*2057.062573 
102*2057.062573 102*2054.967872 
102*2054.967872 102*2052.873170 
102*2052.873170 102*2050.778469 
102*2050.778469 102*2048.683767 
102*2048.683767 102*2046.589066 
102*2046.589066 102*2044.494365 
102*2044.494365 102*2042.399663 
102*2042.399663 102*2040.304962 
102*2040.304962 102*2038.210260 
102*2038.210260 102*2036.115559 
102*2036.115559 102*2034.020858 
102*2034.020858 102*2031.926156 
102*2031.926156 102*2029.831455 
102*2029.831455 102*2027.736753 
102*2027.736753 102*2025.642052 
102*2025.642052 102*2023.547351 
102*2023.547351 102*2021.452649 
102*2021.452649 102*2019.357948 
102*2019.357948 102*2017.263247 
102*2017.263247 102*2015.168545 
102*2015.168545 102*2013.073844 
102*2013.073844 102*2010.979142 
102*2010.979142 102*2008.884441 
102*2008.884441 102*2006.789740 
102*2006.789740 102*2004.695038 
102*2004.695038 102*2002.600337 
102*2002.600337 102*2000.505635 
102*2000.505635 102*1998.410934 
102*1998.410934 102*1996.316233 
102*1996.316233 102*1994.221531 
102*1994.221531 102*1992.126830 