ZCORN
102*2093.003118 102*2089.493567 
102*2089.493567 102*2085.984015 
102*2085.984015 102*2082.474463 
102*2082.474463 102*2078.964912 
102*2078.964912 102*2075.455360 
102*2075.455360 102*2071.945808 
102*2071.945808 102*2068.436257 
102*2068.436257 102*2064.926705 
102*2064.926705 102*2061.417154 
102*2061.417154 102*2057.907602 
102*2057.907602 102*2054.398050 
102*2054.398050 102*2050.888499 
102*2050.888499 102*2047.378947 
102*2047.378947 102*2043.869395 
102*2043.869395 102*2040.359844 
102*2040.359844 102*2036.850292 
102*2036.850292 102*2033.340741 
102*2033.340741 102*2029.831189 
102*2029.831189 102*2026.321637 
102*2026.321637 102*2022.812086 
102*2022.812086 102*2019.302534 
102*2019.302534 102*2015.792982 
102*2015.792982 102*2012.283431 
102*2012.283431 102*2008.773879 
102*2008.773879 102*2005.264327 
102*2005.264327 102*2001.754776 
102*2001.754776 102*1998.245224 
102*1998.245224 102*1994.735673 
102*1994.735673 102*1991.226121 
102*1991.226121 102*1987.716569 
102*1987.716569 102*1984.207018 
102*1984.207018 102*1980.697466 
102*1980.697466 102*1977.187914 
102*1977.187914 102*1973.678363 
102*1973.678363 102*1970.168811 
102*1970.168811 102*1966.659259 
102*1966.659259 102*1963.149708 
102*1963.149708 102*1959.640156 
102*1959.640156 102*1956.130605 
102*1956.130605 102*1952.621053 
102*1952.621053 102*1949.111501 
102*1949.111501 102*1945.601950 
102*1945.601950 102*1942.092398 
102*1942.092398 102*1938.582846 
102*1938.582846 102*1935.073295 
102*1935.073295 102*1931.563743 
102*1931.563743 102*1928.054192 
102*1928.054192 102*1924.544640 
102*1924.544640 102*1921.035088 
102*1921.035088 102*1917.525537 
102*1917.525537 102*1914.015985 
102*2095.503118 102*2091.993567 
102*2091.993567 102*2088.484015 
102*2088.484015 102*2084.974463 
102*2084.974463 102*2081.464912 
102*2081.464912 102*2077.955360 
102*2077.955360 102*2074.445808 
102*2074.445808 102*2070.936257 
102*2070.936257 102*2067.426705 
102*2067.426705 102*2063.917154 
102*2063.917154 102*2060.407602 
102*2060.407602 102*2056.898050 
102*2056.898050 102*2053.388499 
102*2053.388499 102*2049.878947 
102*2049.878947 102*2046.369395 
102*2046.369395 102*2042.859844 
102*2042.859844 102*2039.350292 
102*2039.350292 102*2035.840741 
102*2035.840741 102*2032.331189 
102*2032.331189 102*2028.821637 
102*2028.821637 102*2025.312086 
102*2025.312086 102*2021.802534 
102*2021.802534 102*2018.292982 
102*2018.292982 102*2014.783431 
102*2014.783431 102*2011.273879 
102*2011.273879 102*2007.764327 
102*2007.764327 102*2004.254776 
102*2004.254776 102*2000.745224 
102*2000.745224 102*1997.235673 
102*1997.235673 102*1993.726121 
102*1993.726121 102*1990.216569 
102*1990.216569 102*1986.707018 
102*1986.707018 102*1983.197466 
102*1983.197466 102*1979.687914 
102*1979.687914 102*1976.178363 
102*1976.178363 102*1972.668811 
102*1972.668811 102*1969.159259 
102*1969.159259 102*1965.649708 
102*1965.649708 102*1962.140156 
102*1962.140156 102*1958.630605 
102*1958.630605 102*1955.121053 
102*1955.121053 102*1951.611501 
102*1951.611501 102*1948.101950 
102*1948.101950 102*1944.592398 
102*1944.592398 102*1941.082846 
102*1941.082846 102*1937.573295 
102*1937.573295 102*1934.063743 
102*1934.063743 102*1930.554192 
102*1930.554192 102*1927.044640 
102*1927.044640 102*1923.535088 
102*1923.535088 102*1920.025537 
102*1920.025537 102*1916.515985 
102*2095.503118 102*2091.993567 
102*2091.993567 102*2088.484015 
102*2088.484015 102*2084.974463 
102*2084.974463 102*2081.464912 
102*2081.464912 102*2077.955360 
102*2077.955360 102*2074.445808 
102*2074.445808 102*2070.936257 
102*2070.936257 102*2067.426705 
102*2067.426705 102*2063.917154 
102*2063.917154 102*2060.407602 
102*2060.407602 102*2056.898050 
102*2056.898050 102*2053.388499 
102*2053.388499 102*2049.878947 
102*2049.878947 102*2046.369395 
102*2046.369395 102*2042.859844 
102*2042.859844 102*2039.350292 
102*2039.350292 102*2035.840741 
102*2035.840741 102*2032.331189 
102*2032.331189 102*2028.821637 
102*2028.821637 102*2025.312086 
102*2025.312086 102*2021.802534 
102*2021.802534 102*2018.292982 
102*2018.292982 102*2014.783431 
102*2014.783431 102*2011.273879 
102*2011.273879 102*2007.764327 
102*2007.764327 102*2004.254776 
102*2004.254776 102*2000.745224 
102*2000.745224 102*1997.235673 
102*1997.235673 102*1993.726121 
102*1993.726121 102*1990.216569 
102*1990.216569 102*1986.707018 
102*1986.707018 102*1983.197466 
102*1983.197466 102*1979.687914 
102*1979.687914 102*1976.178363 
102*1976.178363 102*1972.668811 
102*1972.668811 102*1969.159259 
102*1969.159259 102*1965.649708 
102*1965.649708 102*1962.140156 
102*1962.140156 102*1958.630605 
102*1958.630605 102*1955.121053 
102*1955.121053 102*1951.611501 
102*1951.611501 102*1948.101950 
102*1948.101950 102*1944.592398 
102*1944.592398 102*1941.082846 
102*1941.082846 102*1937.573295 
102*1937.573295 102*1934.063743 
102*1934.063743 102*1930.554192 
102*1930.554192 102*1927.044640 
102*1927.044640 102*1923.535088 
102*1923.535088 102*1920.025537 
102*1920.025537 102*1916.515985 
102*2098.003118 102*2094.493567 
102*2094.493567 102*2090.984015 
102*2090.984015 102*2087.474463 
102*2087.474463 102*2083.964912 
102*2083.964912 102*2080.455360 
102*2080.455360 102*2076.945808 
102*2076.945808 102*2073.436257 
102*2073.436257 102*2069.926705 
102*2069.926705 102*2066.417154 
102*2066.417154 102*2062.907602 
102*2062.907602 102*2059.398050 
102*2059.398050 102*2055.888499 
102*2055.888499 102*2052.378947 
102*2052.378947 102*2048.869395 
102*2048.869395 102*2045.359844 
102*2045.359844 102*2041.850292 
102*2041.850292 102*2038.340741 
102*2038.340741 102*2034.831189 
102*2034.831189 102*2031.321637 
102*2031.321637 102*2027.812086 
102*2027.812086 102*2024.302534 
102*2024.302534 102*2020.792982 
102*2020.792982 102*2017.283431 
102*2017.283431 102*2013.773879 
102*2013.773879 102*2010.264327 
102*2010.264327 102*2006.754776 
102*2006.754776 102*2003.245224 
102*2003.245224 102*1999.735673 
102*1999.735673 102*1996.226121 
102*1996.226121 102*1992.716569 
102*1992.716569 102*1989.207018 
102*1989.207018 102*1985.697466 
102*1985.697466 102*1982.187914 
102*1982.187914 102*1978.678363 
102*1978.678363 102*1975.168811 
102*1975.168811 102*1971.659259 
102*1971.659259 102*1968.149708 
102*1968.149708 102*1964.640156 
102*1964.640156 102*1961.130605 
102*1961.130605 102*1957.621053 
102*1957.621053 102*1954.111501 
102*1954.111501 102*1950.601950 
102*1950.601950 102*1947.092398 
102*1947.092398 102*1943.582846 
102*1943.582846 102*1940.073295 
102*1940.073295 102*1936.563743 
102*1936.563743 102*1933.054192 
102*1933.054192 102*1929.544640 
102*1929.544640 102*1926.035088 
102*1926.035088 102*1922.525537 
102*1922.525537 102*1919.015985 
102*2098.003118 102*2094.493567 
102*2094.493567 102*2090.984015 
102*2090.984015 102*2087.474463 
102*2087.474463 102*2083.964912 
102*2083.964912 102*2080.455360 
102*2080.455360 102*2076.945808 
102*2076.945808 102*2073.436257 
102*2073.436257 102*2069.926705 
102*2069.926705 102*2066.417154 
102*2066.417154 102*2062.907602 
102*2062.907602 102*2059.398050 
102*2059.398050 102*2055.888499 
102*2055.888499 102*2052.378947 
102*2052.378947 102*2048.869395 
102*2048.869395 102*2045.359844 
102*2045.359844 102*2041.850292 
102*2041.850292 102*2038.340741 
102*2038.340741 102*2034.831189 
102*2034.831189 102*2031.321637 
102*2031.321637 102*2027.812086 
102*2027.812086 102*2024.302534 
102*2024.302534 102*2020.792982 
102*2020.792982 102*2017.283431 
102*2017.283431 102*2013.773879 
102*2013.773879 102*2010.264327 
102*2010.264327 102*2006.754776 
102*2006.754776 102*2003.245224 
102*2003.245224 102*1999.735673 
102*1999.735673 102*1996.226121 
102*1996.226121 102*1992.716569 
102*1992.716569 102*1989.207018 
102*1989.207018 102*1985.697466 
102*1985.697466 102*1982.187914 
102*1982.187914 102*1978.678363 
102*1978.678363 102*1975.168811 
102*1975.168811 102*1971.659259 
102*1971.659259 102*1968.149708 
102*1968.149708 102*1964.640156 
102*1964.640156 102*1961.130605 
102*1961.130605 102*1957.621053 
102*1957.621053 102*1954.111501 
102*1954.111501 102*1950.601950 
102*1950.601950 102*1947.092398 
102*1947.092398 102*1943.582846 
102*1943.582846 102*1940.073295 
102*1940.073295 102*1936.563743 
102*1936.563743 102*1933.054192 
102*1933.054192 102*1929.544640 
102*1929.544640 102*1926.035088 
102*1926.035088 102*1922.525537 
102*1922.525537 102*1919.015985 
102*2100.503118 102*2096.993567 
102*2096.993567 102*2093.484015 
102*2093.484015 102*2089.974463 
102*2089.974463 102*2086.464912 
102*2086.464912 102*2082.955360 
102*2082.955360 102*2079.445808 
102*2079.445808 102*2075.936257 
102*2075.936257 102*2072.426705 
102*2072.426705 102*2068.917154 
102*2068.917154 102*2065.407602 
102*2065.407602 102*2061.898050 
102*2061.898050 102*2058.388499 
102*2058.388499 102*2054.878947 
102*2054.878947 102*2051.369395 
102*2051.369395 102*2047.859844 
102*2047.859844 102*2044.350292 
102*2044.350292 102*2040.840741 
102*2040.840741 102*2037.331189 
102*2037.331189 102*2033.821637 
102*2033.821637 102*2030.312086 
102*2030.312086 102*2026.802534 
102*2026.802534 102*2023.292982 
102*2023.292982 102*2019.783431 
102*2019.783431 102*2016.273879 
102*2016.273879 102*2012.764327 
102*2012.764327 102*2009.254776 
102*2009.254776 102*2005.745224 
102*2005.745224 102*2002.235673 
102*2002.235673 102*1998.726121 
102*1998.726121 102*1995.216569 
102*1995.216569 102*1991.707018 
102*1991.707018 102*1988.197466 
102*1988.197466 102*1984.687914 
102*1984.687914 102*1981.178363 
102*1981.178363 102*1977.668811 
102*1977.668811 102*1974.159259 
102*1974.159259 102*1970.649708 
102*1970.649708 102*1967.140156 
102*1967.140156 102*1963.630605 
102*1963.630605 102*1960.121053 
102*1960.121053 102*1956.611501 
102*1956.611501 102*1953.101950 
102*1953.101950 102*1949.592398 
102*1949.592398 102*1946.082846 
102*1946.082846 102*1942.573295 
102*1942.573295 102*1939.063743 
102*1939.063743 102*1935.554192 
102*1935.554192 102*1932.044640 
102*1932.044640 102*1928.535088 
102*1928.535088 102*1925.025537 
102*1925.025537 102*1921.515985 
102*2100.503118 102*2096.993567 
102*2096.993567 102*2093.484015 
102*2093.484015 102*2089.974463 
102*2089.974463 102*2086.464912 
102*2086.464912 102*2082.955360 
102*2082.955360 102*2079.445808 
102*2079.445808 102*2075.936257 
102*2075.936257 102*2072.426705 
102*2072.426705 102*2068.917154 
102*2068.917154 102*2065.407602 
102*2065.407602 102*2061.898050 
102*2061.898050 102*2058.388499 
102*2058.388499 102*2054.878947 
102*2054.878947 102*2051.369395 
102*2051.369395 102*2047.859844 
102*2047.859844 102*2044.350292 
102*2044.350292 102*2040.840741 
102*2040.840741 102*2037.331189 
102*2037.331189 102*2033.821637 
102*2033.821637 102*2030.312086 
102*2030.312086 102*2026.802534 
102*2026.802534 102*2023.292982 
102*2023.292982 102*2019.783431 
102*2019.783431 102*2016.273879 
102*2016.273879 102*2012.764327 
102*2012.764327 102*2009.254776 
102*2009.254776 102*2005.745224 
102*2005.745224 102*2002.235673 
102*2002.235673 102*1998.726121 
102*1998.726121 102*1995.216569 
102*1995.216569 102*1991.707018 
102*1991.707018 102*1988.197466 
102*1988.197466 102*1984.687914 
102*1984.687914 102*1981.178363 
102*1981.178363 102*1977.668811 
102*1977.668811 102*1974.159259 
102*1974.159259 102*1970.649708 
102*1970.649708 102*1967.140156 
102*1967.140156 102*1963.630605 
102*1963.630605 102*1960.121053 
102*1960.121053 102*1956.611501 
102*1956.611501 102*1953.101950 
102*1953.101950 102*1949.592398 
102*1949.592398 102*1946.082846 
102*1946.082846 102*1942.573295 
102*1942.573295 102*1939.063743 
102*1939.063743 102*1935.554192 
102*1935.554192 102*1932.044640 
102*1932.044640 102*1928.535088 
102*1928.535088 102*1925.025537 
102*1925.025537 102*1921.515985 
102*2103.003118 102*2099.493567 
102*2099.493567 102*2095.984015 
102*2095.984015 102*2092.474463 
102*2092.474463 102*2088.964912 
102*2088.964912 102*2085.455360 
102*2085.455360 102*2081.945808 
102*2081.945808 102*2078.436257 
102*2078.436257 102*2074.926705 
102*2074.926705 102*2071.417154 
102*2071.417154 102*2067.907602 
102*2067.907602 102*2064.398050 
102*2064.398050 102*2060.888499 
102*2060.888499 102*2057.378947 
102*2057.378947 102*2053.869395 
102*2053.869395 102*2050.359844 
102*2050.359844 102*2046.850292 
102*2046.850292 102*2043.340741 
102*2043.340741 102*2039.831189 
102*2039.831189 102*2036.321637 
102*2036.321637 102*2032.812086 
102*2032.812086 102*2029.302534 
102*2029.302534 102*2025.792982 
102*2025.792982 102*2022.283431 
102*2022.283431 102*2018.773879 
102*2018.773879 102*2015.264327 
102*2015.264327 102*2011.754776 
102*2011.754776 102*2008.245224 
102*2008.245224 102*2004.735673 
102*2004.735673 102*2001.226121 
102*2001.226121 102*1997.716569 
102*1997.716569 102*1994.207018 
102*1994.207018 102*1990.697466 
102*1990.697466 102*1987.187914 
102*1987.187914 102*1983.678363 
102*1983.678363 102*1980.168811 
102*1980.168811 102*1976.659259 
102*1976.659259 102*1973.149708 
102*1973.149708 102*1969.640156 
102*1969.640156 102*1966.130605 
102*1966.130605 102*1962.621053 
102*1962.621053 102*1959.111501 
102*1959.111501 102*1955.601950 
102*1955.601950 102*1952.092398 
102*1952.092398 102*1948.582846 
102*1948.582846 102*1945.073295 
102*1945.073295 102*1941.563743 
102*1941.563743 102*1938.054192 
102*1938.054192 102*1934.544640 
102*1934.544640 102*1931.035088 
102*1931.035088 102*1927.525537 
102*1927.525537 102*1924.015985 
102*2103.003118 102*2099.493567 
102*2099.493567 102*2095.984015 
102*2095.984015 102*2092.474463 
102*2092.474463 102*2088.964912 
102*2088.964912 102*2085.455360 
102*2085.455360 102*2081.945808 
102*2081.945808 102*2078.436257 
102*2078.436257 102*2074.926705 
102*2074.926705 102*2071.417154 
102*2071.417154 102*2067.907602 
102*2067.907602 102*2064.398050 
102*2064.398050 102*2060.888499 
102*2060.888499 102*2057.378947 
102*2057.378947 102*2053.869395 
102*2053.869395 102*2050.359844 
102*2050.359844 102*2046.850292 
102*2046.850292 102*2043.340741 
102*2043.340741 102*2039.831189 
102*2039.831189 102*2036.321637 
102*2036.321637 102*2032.812086 
102*2032.812086 102*2029.302534 
102*2029.302534 102*2025.792982 
102*2025.792982 102*2022.283431 
102*2022.283431 102*2018.773879 
102*2018.773879 102*2015.264327 
102*2015.264327 102*2011.754776 
102*2011.754776 102*2008.245224 
102*2008.245224 102*2004.735673 
102*2004.735673 102*2001.226121 
102*2001.226121 102*1997.716569 
102*1997.716569 102*1994.207018 
102*1994.207018 102*1990.697466 
102*1990.697466 102*1987.187914 
102*1987.187914 102*1983.678363 
102*1983.678363 102*1980.168811 
102*1980.168811 102*1976.659259 
102*1976.659259 102*1973.149708 
102*1973.149708 102*1969.640156 
102*1969.640156 102*1966.130605 
102*1966.130605 102*1962.621053 
102*1962.621053 102*1959.111501 
102*1959.111501 102*1955.601950 
102*1955.601950 102*1952.092398 
102*1952.092398 102*1948.582846 
102*1948.582846 102*1945.073295 
102*1945.073295 102*1941.563743 
102*1941.563743 102*1938.054192 
102*1938.054192 102*1934.544640 
102*1934.544640 102*1931.035088 
102*1931.035088 102*1927.525537 
102*1927.525537 102*1924.015985 
102*2105.503118 102*2101.993567 
102*2101.993567 102*2098.484015 
102*2098.484015 102*2094.974463 
102*2094.974463 102*2091.464912 
102*2091.464912 102*2087.955360 
102*2087.955360 102*2084.445808 
102*2084.445808 102*2080.936257 
102*2080.936257 102*2077.426705 
102*2077.426705 102*2073.917154 
102*2073.917154 102*2070.407602 
102*2070.407602 102*2066.898050 
102*2066.898050 102*2063.388499 
102*2063.388499 102*2059.878947 
102*2059.878947 102*2056.369395 
102*2056.369395 102*2052.859844 
102*2052.859844 102*2049.350292 
102*2049.350292 102*2045.840741 
102*2045.840741 102*2042.331189 
102*2042.331189 102*2038.821637 
102*2038.821637 102*2035.312086 
102*2035.312086 102*2031.802534 
102*2031.802534 102*2028.292982 
102*2028.292982 102*2024.783431 
102*2024.783431 102*2021.273879 
102*2021.273879 102*2017.764327 
102*2017.764327 102*2014.254776 
102*2014.254776 102*2010.745224 
102*2010.745224 102*2007.235673 
102*2007.235673 102*2003.726121 
102*2003.726121 102*2000.216569 
102*2000.216569 102*1996.707018 
102*1996.707018 102*1993.197466 
102*1993.197466 102*1989.687914 
102*1989.687914 102*1986.178363 
102*1986.178363 102*1982.668811 
102*1982.668811 102*1979.159259 
102*1979.159259 102*1975.649708 
102*1975.649708 102*1972.140156 
102*1972.140156 102*1968.630605 
102*1968.630605 102*1965.121053 
102*1965.121053 102*1961.611501 
102*1961.611501 102*1958.101950 
102*1958.101950 102*1954.592398 
102*1954.592398 102*1951.082846 
102*1951.082846 102*1947.573295 
102*1947.573295 102*1944.063743 
102*1944.063743 102*1940.554192 
102*1940.554192 102*1937.044640 
102*1937.044640 102*1933.535088 
102*1933.535088 102*1930.025537 
102*1930.025537 102*1926.515985 
102*2105.503118 102*2101.993567 
102*2101.993567 102*2098.484015 
102*2098.484015 102*2094.974463 
102*2094.974463 102*2091.464912 
102*2091.464912 102*2087.955360 
102*2087.955360 102*2084.445808 
102*2084.445808 102*2080.936257 
102*2080.936257 102*2077.426705 
102*2077.426705 102*2073.917154 
102*2073.917154 102*2070.407602 
102*2070.407602 102*2066.898050 
102*2066.898050 102*2063.388499 
102*2063.388499 102*2059.878947 
102*2059.878947 102*2056.369395 
102*2056.369395 102*2052.859844 
102*2052.859844 102*2049.350292 
102*2049.350292 102*2045.840741 
102*2045.840741 102*2042.331189 
102*2042.331189 102*2038.821637 
102*2038.821637 102*2035.312086 
102*2035.312086 102*2031.802534 
102*2031.802534 102*2028.292982 
102*2028.292982 102*2024.783431 
102*2024.783431 102*2021.273879 
102*2021.273879 102*2017.764327 
102*2017.764327 102*2014.254776 
102*2014.254776 102*2010.745224 
102*2010.745224 102*2007.235673 
102*2007.235673 102*2003.726121 
102*2003.726121 102*2000.216569 
102*2000.216569 102*1996.707018 
102*1996.707018 102*1993.197466 
102*1993.197466 102*1989.687914 
102*1989.687914 102*1986.178363 
102*1986.178363 102*1982.668811 
102*1982.668811 102*1979.159259 
102*1979.159259 102*1975.649708 
102*1975.649708 102*1972.140156 
102*1972.140156 102*1968.630605 
102*1968.630605 102*1965.121053 
102*1965.121053 102*1961.611501 
102*1961.611501 102*1958.101950 
102*1958.101950 102*1954.592398 
102*1954.592398 102*1951.082846 
102*1951.082846 102*1947.573295 
102*1947.573295 102*1944.063743 
102*1944.063743 102*1940.554192 
102*1940.554192 102*1937.044640 
102*1937.044640 102*1933.535088 
102*1933.535088 102*1930.025537 
102*1930.025537 102*1926.515985 
102*2108.003118 102*2104.493567 
102*2104.493567 102*2100.984015 
102*2100.984015 102*2097.474463 
102*2097.474463 102*2093.964912 
102*2093.964912 102*2090.455360 
102*2090.455360 102*2086.945808 
102*2086.945808 102*2083.436257 
102*2083.436257 102*2079.926705 
102*2079.926705 102*2076.417154 
102*2076.417154 102*2072.907602 
102*2072.907602 102*2069.398050 
102*2069.398050 102*2065.888499 
102*2065.888499 102*2062.378947 
102*2062.378947 102*2058.869395 
102*2058.869395 102*2055.359844 
102*2055.359844 102*2051.850292 
102*2051.850292 102*2048.340741 
102*2048.340741 102*2044.831189 
102*2044.831189 102*2041.321637 
102*2041.321637 102*2037.812086 
102*2037.812086 102*2034.302534 
102*2034.302534 102*2030.792982 
102*2030.792982 102*2027.283431 
102*2027.283431 102*2023.773879 
102*2023.773879 102*2020.264327 
102*2020.264327 102*2016.754776 
102*2016.754776 102*2013.245224 
102*2013.245224 102*2009.735673 
102*2009.735673 102*2006.226121 
102*2006.226121 102*2002.716569 
102*2002.716569 102*1999.207018 
102*1999.207018 102*1995.697466 
102*1995.697466 102*1992.187914 
102*1992.187914 102*1988.678363 
102*1988.678363 102*1985.168811 
102*1985.168811 102*1981.659259 
102*1981.659259 102*1978.149708 
102*1978.149708 102*1974.640156 
102*1974.640156 102*1971.130605 
102*1971.130605 102*1967.621053 
102*1967.621053 102*1964.111501 
102*1964.111501 102*1960.601950 
102*1960.601950 102*1957.092398 
102*1957.092398 102*1953.582846 
102*1953.582846 102*1950.073295 
102*1950.073295 102*1946.563743 
102*1946.563743 102*1943.054192 
102*1943.054192 102*1939.544640 
102*1939.544640 102*1936.035088 
102*1936.035088 102*1932.525537 
102*1932.525537 102*1929.015985 
102*2108.003118 102*2104.493567 
102*2104.493567 102*2100.984015 
102*2100.984015 102*2097.474463 
102*2097.474463 102*2093.964912 
102*2093.964912 102*2090.455360 
102*2090.455360 102*2086.945808 
102*2086.945808 102*2083.436257 
102*2083.436257 102*2079.926705 
102*2079.926705 102*2076.417154 
102*2076.417154 102*2072.907602 
102*2072.907602 102*2069.398050 
102*2069.398050 102*2065.888499 
102*2065.888499 102*2062.378947 
102*2062.378947 102*2058.869395 
102*2058.869395 102*2055.359844 
102*2055.359844 102*2051.850292 
102*2051.850292 102*2048.340741 
102*2048.340741 102*2044.831189 
102*2044.831189 102*2041.321637 
102*2041.321637 102*2037.812086 
102*2037.812086 102*2034.302534 
102*2034.302534 102*2030.792982 
102*2030.792982 102*2027.283431 
102*2027.283431 102*2023.773879 
102*2023.773879 102*2020.264327 
102*2020.264327 102*2016.754776 
102*2016.754776 102*2013.245224 
102*2013.245224 102*2009.735673 
102*2009.735673 102*2006.226121 
102*2006.226121 102*2002.716569 
102*2002.716569 102*1999.207018 
102*1999.207018 102*1995.697466 
102*1995.697466 102*1992.187914 
102*1992.187914 102*1988.678363 
102*1988.678363 102*1985.168811 
102*1985.168811 102*1981.659259 
102*1981.659259 102*1978.149708 
102*1978.149708 102*1974.640156 
102*1974.640156 102*1971.130605 
102*1971.130605 102*1967.621053 
102*1967.621053 102*1964.111501 
102*1964.111501 102*1960.601950 
102*1960.601950 102*1957.092398 
102*1957.092398 102*1953.582846 
102*1953.582846 102*1950.073295 
102*1950.073295 102*1946.563743 
102*1946.563743 102*1943.054192 
102*1943.054192 102*1939.544640 
102*1939.544640 102*1936.035088 
102*1936.035088 102*1932.525537 
102*1932.525537 102*1929.015985 
102*2110.503118 102*2106.993567 
102*2106.993567 102*2103.484015 
102*2103.484015 102*2099.974463 
102*2099.974463 102*2096.464912 
102*2096.464912 102*2092.955360 
102*2092.955360 102*2089.445808 
102*2089.445808 102*2085.936257 
102*2085.936257 102*2082.426705 
102*2082.426705 102*2078.917154 
102*2078.917154 102*2075.407602 
102*2075.407602 102*2071.898050 
102*2071.898050 102*2068.388499 
102*2068.388499 102*2064.878947 
102*2064.878947 102*2061.369395 
102*2061.369395 102*2057.859844 
102*2057.859844 102*2054.350292 
102*2054.350292 102*2050.840741 
102*2050.840741 102*2047.331189 
102*2047.331189 102*2043.821637 
102*2043.821637 102*2040.312086 
102*2040.312086 102*2036.802534 
102*2036.802534 102*2033.292982 
102*2033.292982 102*2029.783431 
102*2029.783431 102*2026.273879 
102*2026.273879 102*2022.764327 
102*2022.764327 102*2019.254776 
102*2019.254776 102*2015.745224 
102*2015.745224 102*2012.235673 
102*2012.235673 102*2008.726121 
102*2008.726121 102*2005.216569 
102*2005.216569 102*2001.707018 
102*2001.707018 102*1998.197466 
102*1998.197466 102*1994.687914 
102*1994.687914 102*1991.178363 
102*1991.178363 102*1987.668811 
102*1987.668811 102*1984.159259 
102*1984.159259 102*1980.649708 
102*1980.649708 102*1977.140156 
102*1977.140156 102*1973.630605 
102*1973.630605 102*1970.121053 
102*1970.121053 102*1966.611501 
102*1966.611501 102*1963.101950 
102*1963.101950 102*1959.592398 
102*1959.592398 102*1956.082846 
102*1956.082846 102*1952.573295 
102*1952.573295 102*1949.063743 
102*1949.063743 102*1945.554192 
102*1945.554192 102*1942.044640 
102*1942.044640 102*1938.535088 
102*1938.535088 102*1935.025537 
102*1935.025537 102*1931.515985 
102*2110.503118 102*2106.993567 
102*2106.993567 102*2103.484015 
102*2103.484015 102*2099.974463 
102*2099.974463 102*2096.464912 
102*2096.464912 102*2092.955360 
102*2092.955360 102*2089.445808 
102*2089.445808 102*2085.936257 
102*2085.936257 102*2082.426705 
102*2082.426705 102*2078.917154 
102*2078.917154 102*2075.407602 
102*2075.407602 102*2071.898050 
102*2071.898050 102*2068.388499 
102*2068.388499 102*2064.878947 
102*2064.878947 102*2061.369395 
102*2061.369395 102*2057.859844 
102*2057.859844 102*2054.350292 
102*2054.350292 102*2050.840741 
102*2050.840741 102*2047.331189 
102*2047.331189 102*2043.821637 
102*2043.821637 102*2040.312086 
102*2040.312086 102*2036.802534 
102*2036.802534 102*2033.292982 
102*2033.292982 102*2029.783431 
102*2029.783431 102*2026.273879 
102*2026.273879 102*2022.764327 
102*2022.764327 102*2019.254776 
102*2019.254776 102*2015.745224 
102*2015.745224 102*2012.235673 
102*2012.235673 102*2008.726121 
102*2008.726121 102*2005.216569 
102*2005.216569 102*2001.707018 
102*2001.707018 102*1998.197466 
102*1998.197466 102*1994.687914 
102*1994.687914 102*1991.178363 
102*1991.178363 102*1987.668811 
102*1987.668811 102*1984.159259 
102*1984.159259 102*1980.649708 
102*1980.649708 102*1977.140156 
102*1977.140156 102*1973.630605 
102*1973.630605 102*1970.121053 
102*1970.121053 102*1966.611501 
102*1966.611501 102*1963.101950 
102*1963.101950 102*1959.592398 
102*1959.592398 102*1956.082846 
102*1956.082846 102*1952.573295 
102*1952.573295 102*1949.063743 
102*1949.063743 102*1945.554192 
102*1945.554192 102*1942.044640 
102*1942.044640 102*1938.535088 
102*1938.535088 102*1935.025537 
102*1935.025537 102*1931.515985 
102*2113.003118 102*2109.493567 
102*2109.493567 102*2105.984015 
102*2105.984015 102*2102.474463 
102*2102.474463 102*2098.964912 
102*2098.964912 102*2095.455360 
102*2095.455360 102*2091.945808 
102*2091.945808 102*2088.436257 
102*2088.436257 102*2084.926705 
102*2084.926705 102*2081.417154 
102*2081.417154 102*2077.907602 
102*2077.907602 102*2074.398050 
102*2074.398050 102*2070.888499 
102*2070.888499 102*2067.378947 
102*2067.378947 102*2063.869395 
102*2063.869395 102*2060.359844 
102*2060.359844 102*2056.850292 
102*2056.850292 102*2053.340741 
102*2053.340741 102*2049.831189 
102*2049.831189 102*2046.321637 
102*2046.321637 102*2042.812086 
102*2042.812086 102*2039.302534 
102*2039.302534 102*2035.792982 
102*2035.792982 102*2032.283431 
102*2032.283431 102*2028.773879 
102*2028.773879 102*2025.264327 
102*2025.264327 102*2021.754776 
102*2021.754776 102*2018.245224 
102*2018.245224 102*2014.735673 
102*2014.735673 102*2011.226121 
102*2011.226121 102*2007.716569 
102*2007.716569 102*2004.207018 
102*2004.207018 102*2000.697466 
102*2000.697466 102*1997.187914 
102*1997.187914 102*1993.678363 
102*1993.678363 102*1990.168811 
102*1990.168811 102*1986.659259 
102*1986.659259 102*1983.149708 
102*1983.149708 102*1979.640156 
102*1979.640156 102*1976.130605 
102*1976.130605 102*1972.621053 
102*1972.621053 102*1969.111501 
102*1969.111501 102*1965.601950 
102*1965.601950 102*1962.092398 
102*1962.092398 102*1958.582846 
102*1958.582846 102*1955.073295 
102*1955.073295 102*1951.563743 
102*1951.563743 102*1948.054192 
102*1948.054192 102*1944.544640 
102*1944.544640 102*1941.035088 
102*1941.035088 102*1937.525537 
102*1937.525537 102*1934.015985 
102*2113.003118 102*2109.493567 
102*2109.493567 102*2105.984015 
102*2105.984015 102*2102.474463 
102*2102.474463 102*2098.964912 
102*2098.964912 102*2095.455360 
102*2095.455360 102*2091.945808 
102*2091.945808 102*2088.436257 
102*2088.436257 102*2084.926705 
102*2084.926705 102*2081.417154 
102*2081.417154 102*2077.907602 
102*2077.907602 102*2074.398050 
102*2074.398050 102*2070.888499 
102*2070.888499 102*2067.378947 
102*2067.378947 102*2063.869395 
102*2063.869395 102*2060.359844 
102*2060.359844 102*2056.850292 
102*2056.850292 102*2053.340741 
102*2053.340741 102*2049.831189 
102*2049.831189 102*2046.321637 
102*2046.321637 102*2042.812086 
102*2042.812086 102*2039.302534 
102*2039.302534 102*2035.792982 
102*2035.792982 102*2032.283431 
102*2032.283431 102*2028.773879 
102*2028.773879 102*2025.264327 
102*2025.264327 102*2021.754776 
102*2021.754776 102*2018.245224 
102*2018.245224 102*2014.735673 
102*2014.735673 102*2011.226121 
102*2011.226121 102*2007.716569 
102*2007.716569 102*2004.207018 
102*2004.207018 102*2000.697466 
102*2000.697466 102*1997.187914 
102*1997.187914 102*1993.678363 
102*1993.678363 102*1990.168811 
102*1990.168811 102*1986.659259 
102*1986.659259 102*1983.149708 
102*1983.149708 102*1979.640156 
102*1979.640156 102*1976.130605 
102*1976.130605 102*1972.621053 
102*1972.621053 102*1969.111501 
102*1969.111501 102*1965.601950 
102*1965.601950 102*1962.092398 
102*1962.092398 102*1958.582846 
102*1958.582846 102*1955.073295 
102*1955.073295 102*1951.563743 
102*1951.563743 102*1948.054192 
102*1948.054192 102*1944.544640 
102*1944.544640 102*1941.035088 
102*1941.035088 102*1937.525537 
102*1937.525537 102*1934.015985 
102*2115.503118 102*2111.993567 
102*2111.993567 102*2108.484015 
102*2108.484015 102*2104.974463 
102*2104.974463 102*2101.464912 
102*2101.464912 102*2097.955360 
102*2097.955360 102*2094.445808 
102*2094.445808 102*2090.936257 
102*2090.936257 102*2087.426705 
102*2087.426705 102*2083.917154 
102*2083.917154 102*2080.407602 
102*2080.407602 102*2076.898050 
102*2076.898050 102*2073.388499 
102*2073.388499 102*2069.878947 
102*2069.878947 102*2066.369395 
102*2066.369395 102*2062.859844 
102*2062.859844 102*2059.350292 
102*2059.350292 102*2055.840741 
102*2055.840741 102*2052.331189 
102*2052.331189 102*2048.821637 
102*2048.821637 102*2045.312086 
102*2045.312086 102*2041.802534 
102*2041.802534 102*2038.292982 
102*2038.292982 102*2034.783431 
102*2034.783431 102*2031.273879 
102*2031.273879 102*2027.764327 
102*2027.764327 102*2024.254776 
102*2024.254776 102*2020.745224 
102*2020.745224 102*2017.235673 
102*2017.235673 102*2013.726121 
102*2013.726121 102*2010.216569 
102*2010.216569 102*2006.707018 
102*2006.707018 102*2003.197466 
102*2003.197466 102*1999.687914 
102*1999.687914 102*1996.178363 
102*1996.178363 102*1992.668811 
102*1992.668811 102*1989.159259 
102*1989.159259 102*1985.649708 
102*1985.649708 102*1982.140156 
102*1982.140156 102*1978.630605 
102*1978.630605 102*1975.121053 
102*1975.121053 102*1971.611501 