ZCORN
102*2076.798523 102*2073.900466 
102*2073.900466 102*2071.002408 
102*2071.002408 102*2068.104351 
102*2068.104351 102*2065.206293 
102*2065.206293 102*2062.308236 
102*2062.308236 102*2059.410178 
102*2059.410178 102*2056.512121 
102*2056.512121 102*2053.614063 
102*2053.614063 102*2050.716006 
102*2050.716006 102*2047.817948 
102*2047.817948 102*2044.919891 
102*2044.919891 102*2042.021834 
102*2042.021834 102*2039.123776 
102*2039.123776 102*2036.225719 
102*2036.225719 102*2033.327661 
102*2033.327661 102*2030.429604 
102*2030.429604 102*2027.531546 
102*2027.531546 102*2024.633489 
102*2024.633489 102*2021.735431 
102*2021.735431 102*2018.837374 
102*2018.837374 102*2015.939316 
102*2015.939316 102*2013.041259 
102*2013.041259 102*2010.143201 
102*2010.143201 102*2007.245144 
102*2007.245144 102*2004.347086 
102*2004.347086 102*2001.449029 
102*2001.449029 102*1998.550971 
102*1998.550971 102*1995.652914 
102*1995.652914 102*1992.754856 
102*1992.754856 102*1989.856799 
102*1989.856799 102*1986.958741 
102*1986.958741 102*1984.060684 
102*1984.060684 102*1981.162626 
102*1981.162626 102*1978.264569 
102*1978.264569 102*1975.366511 
102*1975.366511 102*1972.468454 
102*1972.468454 102*1969.570396 
102*1969.570396 102*1966.672339 
102*1966.672339 102*1963.774281 
102*1963.774281 102*1960.876224 
102*1960.876224 102*1957.978166 
102*1957.978166 102*1955.080109 
102*1955.080109 102*1952.182052 
102*1952.182052 102*1949.283994 
102*1949.283994 102*1946.385937 
102*1946.385937 102*1943.487879 
102*1943.487879 102*1940.589822 
102*1940.589822 102*1937.691764 
102*1937.691764 102*1934.793707 
102*1934.793707 102*1931.895649 
102*1931.895649 102*1928.997592 
102*2079.298523 102*2076.400466 
102*2076.400466 102*2073.502408 
102*2073.502408 102*2070.604351 
102*2070.604351 102*2067.706293 
102*2067.706293 102*2064.808236 
102*2064.808236 102*2061.910178 
102*2061.910178 102*2059.012121 
102*2059.012121 102*2056.114063 
102*2056.114063 102*2053.216006 
102*2053.216006 102*2050.317948 
102*2050.317948 102*2047.419891 
102*2047.419891 102*2044.521834 
102*2044.521834 102*2041.623776 
102*2041.623776 102*2038.725719 
102*2038.725719 102*2035.827661 
102*2035.827661 102*2032.929604 
102*2032.929604 102*2030.031546 
102*2030.031546 102*2027.133489 
102*2027.133489 102*2024.235431 
102*2024.235431 102*2021.337374 
102*2021.337374 102*2018.439316 
102*2018.439316 102*2015.541259 
102*2015.541259 102*2012.643201 
102*2012.643201 102*2009.745144 
102*2009.745144 102*2006.847086 
102*2006.847086 102*2003.949029 
102*2003.949029 102*2001.050971 
102*2001.050971 102*1998.152914 
102*1998.152914 102*1995.254856 
102*1995.254856 102*1992.356799 
102*1992.356799 102*1989.458741 
102*1989.458741 102*1986.560684 
102*1986.560684 102*1983.662626 
102*1983.662626 102*1980.764569 
102*1980.764569 102*1977.866511 
102*1977.866511 102*1974.968454 
102*1974.968454 102*1972.070396 
102*1972.070396 102*1969.172339 
102*1969.172339 102*1966.274281 
102*1966.274281 102*1963.376224 
102*1963.376224 102*1960.478166 
102*1960.478166 102*1957.580109 
102*1957.580109 102*1954.682052 
102*1954.682052 102*1951.783994 
102*1951.783994 102*1948.885937 
102*1948.885937 102*1945.987879 
102*1945.987879 102*1943.089822 
102*1943.089822 102*1940.191764 
102*1940.191764 102*1937.293707 
102*1937.293707 102*1934.395649 
102*1934.395649 102*1931.497592 
102*2079.298523 102*2076.400466 
102*2076.400466 102*2073.502408 
102*2073.502408 102*2070.604351 
102*2070.604351 102*2067.706293 
102*2067.706293 102*2064.808236 
102*2064.808236 102*2061.910178 
102*2061.910178 102*2059.012121 
102*2059.012121 102*2056.114063 
102*2056.114063 102*2053.216006 
102*2053.216006 102*2050.317948 
102*2050.317948 102*2047.419891 
102*2047.419891 102*2044.521834 
102*2044.521834 102*2041.623776 
102*2041.623776 102*2038.725719 
102*2038.725719 102*2035.827661 
102*2035.827661 102*2032.929604 
102*2032.929604 102*2030.031546 
102*2030.031546 102*2027.133489 
102*2027.133489 102*2024.235431 
102*2024.235431 102*2021.337374 
102*2021.337374 102*2018.439316 
102*2018.439316 102*2015.541259 
102*2015.541259 102*2012.643201 
102*2012.643201 102*2009.745144 
102*2009.745144 102*2006.847086 
102*2006.847086 102*2003.949029 
102*2003.949029 102*2001.050971 
102*2001.050971 102*1998.152914 
102*1998.152914 102*1995.254856 
102*1995.254856 102*1992.356799 
102*1992.356799 102*1989.458741 
102*1989.458741 102*1986.560684 
102*1986.560684 102*1983.662626 
102*1983.662626 102*1980.764569 
102*1980.764569 102*1977.866511 
102*1977.866511 102*1974.968454 
102*1974.968454 102*1972.070396 
102*1972.070396 102*1969.172339 
102*1969.172339 102*1966.274281 
102*1966.274281 102*1963.376224 
102*1963.376224 102*1960.478166 
102*1960.478166 102*1957.580109 
102*1957.580109 102*1954.682052 
102*1954.682052 102*1951.783994 
102*1951.783994 102*1948.885937 
102*1948.885937 102*1945.987879 
102*1945.987879 102*1943.089822 
102*1943.089822 102*1940.191764 
102*1940.191764 102*1937.293707 
102*1937.293707 102*1934.395649 
102*1934.395649 102*1931.497592 
102*2081.798523 102*2078.900466 
102*2078.900466 102*2076.002408 
102*2076.002408 102*2073.104351 
102*2073.104351 102*2070.206293 
102*2070.206293 102*2067.308236 
102*2067.308236 102*2064.410178 
102*2064.410178 102*2061.512121 
102*2061.512121 102*2058.614063 
102*2058.614063 102*2055.716006 
102*2055.716006 102*2052.817948 
102*2052.817948 102*2049.919891 
102*2049.919891 102*2047.021834 
102*2047.021834 102*2044.123776 
102*2044.123776 102*2041.225719 
102*2041.225719 102*2038.327661 
102*2038.327661 102*2035.429604 
102*2035.429604 102*2032.531546 
102*2032.531546 102*2029.633489 
102*2029.633489 102*2026.735431 
102*2026.735431 102*2023.837374 
102*2023.837374 102*2020.939316 
102*2020.939316 102*2018.041259 
102*2018.041259 102*2015.143201 
102*2015.143201 102*2012.245144 
102*2012.245144 102*2009.347086 
102*2009.347086 102*2006.449029 
102*2006.449029 102*2003.550971 
102*2003.550971 102*2000.652914 
102*2000.652914 102*1997.754856 
102*1997.754856 102*1994.856799 
102*1994.856799 102*1991.958741 
102*1991.958741 102*1989.060684 
102*1989.060684 102*1986.162626 
102*1986.162626 102*1983.264569 
102*1983.264569 102*1980.366511 
102*1980.366511 102*1977.468454 
102*1977.468454 102*1974.570396 
102*1974.570396 102*1971.672339 
102*1971.672339 102*1968.774281 
102*1968.774281 102*1965.876224 
102*1965.876224 102*1962.978166 
102*1962.978166 102*1960.080109 
102*1960.080109 102*1957.182052 
102*1957.182052 102*1954.283994 
102*1954.283994 102*1951.385937 
102*1951.385937 102*1948.487879 
102*1948.487879 102*1945.589822 
102*1945.589822 102*1942.691764 
102*1942.691764 102*1939.793707 
102*1939.793707 102*1936.895649 
102*1936.895649 102*1933.997592 
102*2081.798523 102*2078.900466 
102*2078.900466 102*2076.002408 
102*2076.002408 102*2073.104351 
102*2073.104351 102*2070.206293 
102*2070.206293 102*2067.308236 
102*2067.308236 102*2064.410178 
102*2064.410178 102*2061.512121 
102*2061.512121 102*2058.614063 
102*2058.614063 102*2055.716006 
102*2055.716006 102*2052.817948 
102*2052.817948 102*2049.919891 
102*2049.919891 102*2047.021834 
102*2047.021834 102*2044.123776 
102*2044.123776 102*2041.225719 
102*2041.225719 102*2038.327661 
102*2038.327661 102*2035.429604 
102*2035.429604 102*2032.531546 
102*2032.531546 102*2029.633489 
102*2029.633489 102*2026.735431 
102*2026.735431 102*2023.837374 
102*2023.837374 102*2020.939316 
102*2020.939316 102*2018.041259 
102*2018.041259 102*2015.143201 
102*2015.143201 102*2012.245144 
102*2012.245144 102*2009.347086 
102*2009.347086 102*2006.449029 
102*2006.449029 102*2003.550971 
102*2003.550971 102*2000.652914 
102*2000.652914 102*1997.754856 
102*1997.754856 102*1994.856799 
102*1994.856799 102*1991.958741 
102*1991.958741 102*1989.060684 
102*1989.060684 102*1986.162626 
102*1986.162626 102*1983.264569 
102*1983.264569 102*1980.366511 
102*1980.366511 102*1977.468454 
102*1977.468454 102*1974.570396 
102*1974.570396 102*1971.672339 
102*1971.672339 102*1968.774281 
102*1968.774281 102*1965.876224 
102*1965.876224 102*1962.978166 
102*1962.978166 102*1960.080109 
102*1960.080109 102*1957.182052 
102*1957.182052 102*1954.283994 
102*1954.283994 102*1951.385937 
102*1951.385937 102*1948.487879 
102*1948.487879 102*1945.589822 
102*1945.589822 102*1942.691764 
102*1942.691764 102*1939.793707 
102*1939.793707 102*1936.895649 
102*1936.895649 102*1933.997592 
102*2084.298523 102*2081.400466 
102*2081.400466 102*2078.502408 
102*2078.502408 102*2075.604351 
102*2075.604351 102*2072.706293 
102*2072.706293 102*2069.808236 
102*2069.808236 102*2066.910178 
102*2066.910178 102*2064.012121 
102*2064.012121 102*2061.114063 
102*2061.114063 102*2058.216006 
102*2058.216006 102*2055.317948 
102*2055.317948 102*2052.419891 
102*2052.419891 102*2049.521834 
102*2049.521834 102*2046.623776 
102*2046.623776 102*2043.725719 
102*2043.725719 102*2040.827661 
102*2040.827661 102*2037.929604 
102*2037.929604 102*2035.031546 
102*2035.031546 102*2032.133489 
102*2032.133489 102*2029.235431 
102*2029.235431 102*2026.337374 
102*2026.337374 102*2023.439316 
102*2023.439316 102*2020.541259 
102*2020.541259 102*2017.643201 
102*2017.643201 102*2014.745144 
102*2014.745144 102*2011.847086 
102*2011.847086 102*2008.949029 
102*2008.949029 102*2006.050971 
102*2006.050971 102*2003.152914 
102*2003.152914 102*2000.254856 
102*2000.254856 102*1997.356799 
102*1997.356799 102*1994.458741 
102*1994.458741 102*1991.560684 
102*1991.560684 102*1988.662626 
102*1988.662626 102*1985.764569 
102*1985.764569 102*1982.866511 
102*1982.866511 102*1979.968454 
102*1979.968454 102*1977.070396 
102*1977.070396 102*1974.172339 
102*1974.172339 102*1971.274281 
102*1971.274281 102*1968.376224 
102*1968.376224 102*1965.478166 
102*1965.478166 102*1962.580109 
102*1962.580109 102*1959.682052 
102*1959.682052 102*1956.783994 
102*1956.783994 102*1953.885937 
102*1953.885937 102*1950.987879 
102*1950.987879 102*1948.089822 
102*1948.089822 102*1945.191764 
102*1945.191764 102*1942.293707 
102*1942.293707 102*1939.395649 
102*1939.395649 102*1936.497592 
102*2084.298523 102*2081.400466 
102*2081.400466 102*2078.502408 
102*2078.502408 102*2075.604351 
102*2075.604351 102*2072.706293 
102*2072.706293 102*2069.808236 
102*2069.808236 102*2066.910178 
102*2066.910178 102*2064.012121 
102*2064.012121 102*2061.114063 
102*2061.114063 102*2058.216006 
102*2058.216006 102*2055.317948 
102*2055.317948 102*2052.419891 
102*2052.419891 102*2049.521834 
102*2049.521834 102*2046.623776 
102*2046.623776 102*2043.725719 
102*2043.725719 102*2040.827661 
102*2040.827661 102*2037.929604 
102*2037.929604 102*2035.031546 
102*2035.031546 102*2032.133489 
102*2032.133489 102*2029.235431 
102*2029.235431 102*2026.337374 
102*2026.337374 102*2023.439316 
102*2023.439316 102*2020.541259 
102*2020.541259 102*2017.643201 
102*2017.643201 102*2014.745144 
102*2014.745144 102*2011.847086 
102*2011.847086 102*2008.949029 
102*2008.949029 102*2006.050971 
102*2006.050971 102*2003.152914 
102*2003.152914 102*2000.254856 
102*2000.254856 102*1997.356799 
102*1997.356799 102*1994.458741 
102*1994.458741 102*1991.560684 
102*1991.560684 102*1988.662626 
102*1988.662626 102*1985.764569 
102*1985.764569 102*1982.866511 
102*1982.866511 102*1979.968454 
102*1979.968454 102*1977.070396 
102*1977.070396 102*1974.172339 
102*1974.172339 102*1971.274281 
102*1971.274281 102*1968.376224 
102*1968.376224 102*1965.478166 
102*1965.478166 102*1962.580109 
102*1962.580109 102*1959.682052 
102*1959.682052 102*1956.783994 
102*1956.783994 102*1953.885937 
102*1953.885937 102*1950.987879 
102*1950.987879 102*1948.089822 
102*1948.089822 102*1945.191764 
102*1945.191764 102*1942.293707 
102*1942.293707 102*1939.395649 
102*1939.395649 102*1936.497592 
102*2086.798523 102*2083.900466 
102*2083.900466 102*2081.002408 
102*2081.002408 102*2078.104351 
102*2078.104351 102*2075.206293 
102*2075.206293 102*2072.308236 
102*2072.308236 102*2069.410178 
102*2069.410178 102*2066.512121 
102*2066.512121 102*2063.614063 
102*2063.614063 102*2060.716006 
102*2060.716006 102*2057.817948 
102*2057.817948 102*2054.919891 
102*2054.919891 102*2052.021834 
102*2052.021834 102*2049.123776 
102*2049.123776 102*2046.225719 
102*2046.225719 102*2043.327661 
102*2043.327661 102*2040.429604 
102*2040.429604 102*2037.531546 
102*2037.531546 102*2034.633489 
102*2034.633489 102*2031.735431 
102*2031.735431 102*2028.837374 
102*2028.837374 102*2025.939316 
102*2025.939316 102*2023.041259 
102*2023.041259 102*2020.143201 
102*2020.143201 102*2017.245144 
102*2017.245144 102*2014.347086 
102*2014.347086 102*2011.449029 
102*2011.449029 102*2008.550971 
102*2008.550971 102*2005.652914 
102*2005.652914 102*2002.754856 
102*2002.754856 102*1999.856799 
102*1999.856799 102*1996.958741 
102*1996.958741 102*1994.060684 
102*1994.060684 102*1991.162626 
102*1991.162626 102*1988.264569 
102*1988.264569 102*1985.366511 
102*1985.366511 102*1982.468454 
102*1982.468454 102*1979.570396 
102*1979.570396 102*1976.672339 
102*1976.672339 102*1973.774281 
102*1973.774281 102*1970.876224 
102*1970.876224 102*1967.978166 
102*1967.978166 102*1965.080109 
102*1965.080109 102*1962.182052 
102*1962.182052 102*1959.283994 
102*1959.283994 102*1956.385937 
102*1956.385937 102*1953.487879 
102*1953.487879 102*1950.589822 
102*1950.589822 102*1947.691764 
102*1947.691764 102*1944.793707 
102*1944.793707 102*1941.895649 
102*1941.895649 102*1938.997592 
102*2086.798523 102*2083.900466 
102*2083.900466 102*2081.002408 
102*2081.002408 102*2078.104351 
102*2078.104351 102*2075.206293 
102*2075.206293 102*2072.308236 
102*2072.308236 102*2069.410178 
102*2069.410178 102*2066.512121 
102*2066.512121 102*2063.614063 
102*2063.614063 102*2060.716006 
102*2060.716006 102*2057.817948 
102*2057.817948 102*2054.919891 
102*2054.919891 102*2052.021834 
102*2052.021834 102*2049.123776 
102*2049.123776 102*2046.225719 
102*2046.225719 102*2043.327661 
102*2043.327661 102*2040.429604 
102*2040.429604 102*2037.531546 
102*2037.531546 102*2034.633489 
102*2034.633489 102*2031.735431 
102*2031.735431 102*2028.837374 
102*2028.837374 102*2025.939316 
102*2025.939316 102*2023.041259 
102*2023.041259 102*2020.143201 
102*2020.143201 102*2017.245144 
102*2017.245144 102*2014.347086 
102*2014.347086 102*2011.449029 
102*2011.449029 102*2008.550971 
102*2008.550971 102*2005.652914 
102*2005.652914 102*2002.754856 
102*2002.754856 102*1999.856799 
102*1999.856799 102*1996.958741 
102*1996.958741 102*1994.060684 
102*1994.060684 102*1991.162626 
102*1991.162626 102*1988.264569 
102*1988.264569 102*1985.366511 
102*1985.366511 102*1982.468454 
102*1982.468454 102*1979.570396 
102*1979.570396 102*1976.672339 
102*1976.672339 102*1973.774281 
102*1973.774281 102*1970.876224 
102*1970.876224 102*1967.978166 
102*1967.978166 102*1965.080109 
102*1965.080109 102*1962.182052 
102*1962.182052 102*1959.283994 
102*1959.283994 102*1956.385937 
102*1956.385937 102*1953.487879 
102*1953.487879 102*1950.589822 
102*1950.589822 102*1947.691764 
102*1947.691764 102*1944.793707 
102*1944.793707 102*1941.895649 
102*1941.895649 102*1938.997592 
102*2089.298523 102*2086.400466 
102*2086.400466 102*2083.502408 
102*2083.502408 102*2080.604351 
102*2080.604351 102*2077.706293 
102*2077.706293 102*2074.808236 
102*2074.808236 102*2071.910178 
102*2071.910178 102*2069.012121 
102*2069.012121 102*2066.114063 
102*2066.114063 102*2063.216006 
102*2063.216006 102*2060.317948 
102*2060.317948 102*2057.419891 
102*2057.419891 102*2054.521834 
102*2054.521834 102*2051.623776 
102*2051.623776 102*2048.725719 
102*2048.725719 102*2045.827661 
102*2045.827661 102*2042.929604 
102*2042.929604 102*2040.031546 
102*2040.031546 102*2037.133489 
102*2037.133489 102*2034.235431 
102*2034.235431 102*2031.337374 
102*2031.337374 102*2028.439316 
102*2028.439316 102*2025.541259 
102*2025.541259 102*2022.643201 
102*2022.643201 102*2019.745144 
102*2019.745144 102*2016.847086 
102*2016.847086 102*2013.949029 
102*2013.949029 102*2011.050971 
102*2011.050971 102*2008.152914 
102*2008.152914 102*2005.254856 
102*2005.254856 102*2002.356799 
102*2002.356799 102*1999.458741 
102*1999.458741 102*1996.560684 
102*1996.560684 102*1993.662626 
102*1993.662626 102*1990.764569 
102*1990.764569 102*1987.866511 
102*1987.866511 102*1984.968454 
102*1984.968454 102*1982.070396 
102*1982.070396 102*1979.172339 
102*1979.172339 102*1976.274281 
102*1976.274281 102*1973.376224 
102*1973.376224 102*1970.478166 
102*1970.478166 102*1967.580109 
102*1967.580109 102*1964.682052 
102*1964.682052 102*1961.783994 
102*1961.783994 102*1958.885937 
102*1958.885937 102*1955.987879 
102*1955.987879 102*1953.089822 
102*1953.089822 102*1950.191764 
102*1950.191764 102*1947.293707 
102*1947.293707 102*1944.395649 
102*1944.395649 102*1941.497592 
102*2089.298523 102*2086.400466 
102*2086.400466 102*2083.502408 
102*2083.502408 102*2080.604351 
102*2080.604351 102*2077.706293 
102*2077.706293 102*2074.808236 
102*2074.808236 102*2071.910178 
102*2071.910178 102*2069.012121 
102*2069.012121 102*2066.114063 
102*2066.114063 102*2063.216006 
102*2063.216006 102*2060.317948 
102*2060.317948 102*2057.419891 
102*2057.419891 102*2054.521834 
102*2054.521834 102*2051.623776 
102*2051.623776 102*2048.725719 
102*2048.725719 102*2045.827661 
102*2045.827661 102*2042.929604 
102*2042.929604 102*2040.031546 
102*2040.031546 102*2037.133489 
102*2037.133489 102*2034.235431 
102*2034.235431 102*2031.337374 
102*2031.337374 102*2028.439316 
102*2028.439316 102*2025.541259 
102*2025.541259 102*2022.643201 
102*2022.643201 102*2019.745144 
102*2019.745144 102*2016.847086 
102*2016.847086 102*2013.949029 
102*2013.949029 102*2011.050971 
102*2011.050971 102*2008.152914 
102*2008.152914 102*2005.254856 
102*2005.254856 102*2002.356799 
102*2002.356799 102*1999.458741 
102*1999.458741 102*1996.560684 
102*1996.560684 102*1993.662626 
102*1993.662626 102*1990.764569 
102*1990.764569 102*1987.866511 
102*1987.866511 102*1984.968454 
102*1984.968454 102*1982.070396 
102*1982.070396 102*1979.172339 
102*1979.172339 102*1976.274281 
102*1976.274281 102*1973.376224 
102*1973.376224 102*1970.478166 
102*1970.478166 102*1967.580109 
102*1967.580109 102*1964.682052 
102*1964.682052 102*1961.783994 
102*1961.783994 102*1958.885937 
102*1958.885937 102*1955.987879 
102*1955.987879 102*1953.089822 
102*1953.089822 102*1950.191764 
102*1950.191764 102*1947.293707 
102*1947.293707 102*1944.395649 
102*1944.395649 102*1941.497592 
102*2091.798523 102*2088.900466 
102*2088.900466 102*2086.002408 
102*2086.002408 102*2083.104351 
102*2083.104351 102*2080.206293 
102*2080.206293 102*2077.308236 
102*2077.308236 102*2074.410178 
102*2074.410178 102*2071.512121 
102*2071.512121 102*2068.614063 
102*2068.614063 102*2065.716006 
102*2065.716006 102*2062.817948 
102*2062.817948 102*2059.919891 
102*2059.919891 102*2057.021834 
102*2057.021834 102*2054.123776 
102*2054.123776 102*2051.225719 
102*2051.225719 102*2048.327661 
102*2048.327661 102*2045.429604 
102*2045.429604 102*2042.531546 
102*2042.531546 102*2039.633489 
102*2039.633489 102*2036.735431 
102*2036.735431 102*2033.837374 
102*2033.837374 102*2030.939316 
102*2030.939316 102*2028.041259 
102*2028.041259 102*2025.143201 
102*2025.143201 102*2022.245144 
102*2022.245144 102*2019.347086 
102*2019.347086 102*2016.449029 
102*2016.449029 102*2013.550971 
102*2013.550971 102*2010.652914 
102*2010.652914 102*2007.754856 
102*2007.754856 102*2004.856799 
102*2004.856799 102*2001.958741 
102*2001.958741 102*1999.060684 
102*1999.060684 102*1996.162626 
102*1996.162626 102*1993.264569 
102*1993.264569 102*1990.366511 
102*1990.366511 102*1987.468454 
102*1987.468454 102*1984.570396 
102*1984.570396 102*1981.672339 
102*1981.672339 102*1978.774281 
102*1978.774281 102*1975.876224 
102*1975.876224 102*1972.978166 
102*1972.978166 102*1970.080109 
102*1970.080109 102*1967.182052 
102*1967.182052 102*1964.283994 
102*1964.283994 102*1961.385937 
102*1961.385937 102*1958.487879 
102*1958.487879 102*1955.589822 
102*1955.589822 102*1952.691764 
102*1952.691764 102*1949.793707 
102*1949.793707 102*1946.895649 
102*1946.895649 102*1943.997592 
102*2091.798523 102*2088.900466 
102*2088.900466 102*2086.002408 
102*2086.002408 102*2083.104351 
102*2083.104351 102*2080.206293 
102*2080.206293 102*2077.308236 
102*2077.308236 102*2074.410178 
102*2074.410178 102*2071.512121 
102*2071.512121 102*2068.614063 
102*2068.614063 102*2065.716006 
102*2065.716006 102*2062.817948 
102*2062.817948 102*2059.919891 
102*2059.919891 102*2057.021834 
102*2057.021834 102*2054.123776 
102*2054.123776 102*2051.225719 
102*2051.225719 102*2048.327661 
102*2048.327661 102*2045.429604 
102*2045.429604 102*2042.531546 
102*2042.531546 102*2039.633489 
102*2039.633489 102*2036.735431 
102*2036.735431 102*2033.837374 
102*2033.837374 102*2030.939316 
102*2030.939316 102*2028.041259 
102*2028.041259 102*2025.143201 
102*2025.143201 102*2022.245144 
102*2022.245144 102*2019.347086 
102*2019.347086 102*2016.449029 
102*2016.449029 102*2013.550971 
102*2013.550971 102*2010.652914 
102*2010.652914 102*2007.754856 
102*2007.754856 102*2004.856799 
102*2004.856799 102*2001.958741 
102*2001.958741 102*1999.060684 
102*1999.060684 102*1996.162626 
102*1996.162626 102*1993.264569 
102*1993.264569 102*1990.366511 
102*1990.366511 102*1987.468454 
102*1987.468454 102*1984.570396 
102*1984.570396 102*1981.672339 
102*1981.672339 102*1978.774281 
102*1978.774281 102*1975.876224 
102*1975.876224 102*1972.978166 
102*1972.978166 102*1970.080109 
102*1970.080109 102*1967.182052 
102*1967.182052 102*1964.283994 
102*1964.283994 102*1961.385937 
102*1961.385937 102*1958.487879 
102*1958.487879 102*1955.589822 
102*1955.589822 102*1952.691764 
102*1952.691764 102*1949.793707 
102*1949.793707 102*1946.895649 
102*1946.895649 102*1943.997592 
102*2094.298523 102*2091.400466 
102*2091.400466 102*2088.502408 
102*2088.502408 102*2085.604351 
102*2085.604351 102*2082.706293 
102*2082.706293 102*2079.808236 
102*2079.808236 102*2076.910178 
102*2076.910178 102*2074.012121 
102*2074.012121 102*2071.114063 
102*2071.114063 102*2068.216006 
102*2068.216006 102*2065.317948 
102*2065.317948 102*2062.419891 
102*2062.419891 102*2059.521834 
102*2059.521834 102*2056.623776 
102*2056.623776 102*2053.725719 
102*2053.725719 102*2050.827661 
102*2050.827661 102*2047.929604 
102*2047.929604 102*2045.031546 
102*2045.031546 102*2042.133489 
102*2042.133489 102*2039.235431 
102*2039.235431 102*2036.337374 
102*2036.337374 102*2033.439316 
102*2033.439316 102*2030.541259 
102*2030.541259 102*2027.643201 
102*2027.643201 102*2024.745144 
102*2024.745144 102*2021.847086 
102*2021.847086 102*2018.949029 
102*2018.949029 102*2016.050971 
102*2016.050971 102*2013.152914 
102*2013.152914 102*2010.254856 
102*2010.254856 102*2007.356799 
102*2007.356799 102*2004.458741 
102*2004.458741 102*2001.560684 
102*2001.560684 102*1998.662626 
102*1998.662626 102*1995.764569 
102*1995.764569 102*1992.866511 
102*1992.866511 102*1989.968454 
102*1989.968454 102*1987.070396 
102*1987.070396 102*1984.172339 
102*1984.172339 102*1981.274281 
102*1981.274281 102*1978.376224 
102*1978.376224 102*1975.478166 
102*1975.478166 102*1972.580109 
102*1972.580109 102*1969.682052 
102*1969.682052 102*1966.783994 
102*1966.783994 102*1963.885937 
102*1963.885937 102*1960.987879 
102*1960.987879 102*1958.089822 
102*1958.089822 102*1955.191764 
102*1955.191764 102*1952.293707 
102*1952.293707 102*1949.395649 
102*1949.395649 102*1946.497592 
102*2094.298523 102*2091.400466 
102*2091.400466 102*2088.502408 
102*2088.502408 102*2085.604351 
102*2085.604351 102*2082.706293 
102*2082.706293 102*2079.808236 
102*2079.808236 102*2076.910178 
102*2076.910178 102*2074.012121 
102*2074.012121 102*2071.114063 
102*2071.114063 102*2068.216006 
102*2068.216006 102*2065.317948 
102*2065.317948 102*2062.419891 
102*2062.419891 102*2059.521834 
102*2059.521834 102*2056.623776 
102*2056.623776 102*2053.725719 
102*2053.725719 102*2050.827661 
102*2050.827661 102*2047.929604 
102*2047.929604 102*2045.031546 
102*2045.031546 102*2042.133489 
102*2042.133489 102*2039.235431 
102*2039.235431 102*2036.337374 
102*2036.337374 102*2033.439316 
102*2033.439316 102*2030.541259 
102*2030.541259 102*2027.643201 
102*2027.643201 102*2024.745144 
102*2024.745144 102*2021.847086 
102*2021.847086 102*2018.949029 
102*2018.949029 102*2016.050971 
102*2016.050971 102*2013.152914 
102*2013.152914 102*2010.254856 
102*2010.254856 102*2007.356799 
102*2007.356799 102*2004.458741 
102*2004.458741 102*2001.560684 
102*2001.560684 102*1998.662626 
102*1998.662626 102*1995.764569 
102*1995.764569 102*1992.866511 
102*1992.866511 102*1989.968454 
102*1989.968454 102*1987.070396 
102*1987.070396 102*1984.172339 
102*1984.172339 102*1981.274281 
102*1981.274281 102*1978.376224 
102*1978.376224 102*1975.478166 
102*1975.478166 102*1972.580109 
102*1972.580109 102*1969.682052 
102*1969.682052 102*1966.783994 
102*1966.783994 102*1963.885937 
102*1963.885937 102*1960.987879 
102*1960.987879 102*1958.089822 
102*1958.089822 102*1955.191764 
102*1955.191764 102*1952.293707 
102*1952.293707 102*1949.395649 
102*1949.395649 102*1946.497592 
102*2096.798523 102*2093.900466 
102*2093.900466 102*2091.002408 
102*2091.002408 102*2088.104351 
102*2088.104351 102*2085.206293 
102*2085.206293 102*2082.308236 
102*2082.308236 102*2079.410178 
102*2079.410178 102*2076.512121 
102*2076.512121 102*2073.614063 
102*2073.614063 102*2070.716006 
102*2070.716006 102*2067.817948 
102*2067.817948 102*2064.919891 
102*2064.919891 102*2062.021834 
102*2062.021834 102*2059.123776 
102*2059.123776 102*2056.225719 
102*2056.225719 102*2053.327661 
102*2053.327661 102*2050.429604 
102*2050.429604 102*2047.531546 
102*2047.531546 102*2044.633489 
102*2044.633489 102*2041.735431 
102*2041.735431 102*2038.837374 
102*2038.837374 102*2035.939316 
102*2035.939316 102*2033.041259 
102*2033.041259 102*2030.143201 
102*2030.143201 102*2027.245144 
102*2027.245144 102*2024.347086 
102*2024.347086 102*2021.449029 
102*2021.449029 102*2018.550971 
102*2018.550971 102*2015.652914 
102*2015.652914 102*2012.754856 
102*2012.754856 102*2009.856799 
102*2009.856799 102*2006.958741 
102*2006.958741 102*2004.060684 
102*2004.060684 102*2001.162626 
102*2001.162626 102*1998.264569 
102*1998.264569 102*1995.366511 
102*1995.366511 102*1992.468454 
102*1992.468454 102*1989.570396 
102*1989.570396 102*1986.672339 
102*1986.672339 102*1983.774281 
102*1983.774281 102*1980.876224 
102*1980.876224 102*1977.978166 
102*1977.978166 102*1975.080109 
102*1975.080109 102*1972.182052 
102*1972.182052 102*1969.283994 
102*1969.283994 102*1966.385937 
102*1966.385937 102*1963.487879 
102*1963.487879 102*1960.589822 
102*1960.589822 102*1957.691764 
102*1957.691764 102*1954.793707 
102*1954.793707 102*1951.895649 
102*1951.895649 102*1948.997592 
102*2096.798523 102*2093.900466 
102*2093.900466 102*2091.002408 
102*2091.002408 102*2088.104351 
102*2088.104351 102*2085.206293 
102*2085.206293 102*2082.308236 
102*2082.308236 102*2079.410178 
102*2079.410178 102*2076.512121 
102*2076.512121 102*2073.614063 
102*2073.614063 102*2070.716006 
102*2070.716006 102*2067.817948 
102*2067.817948 102*2064.919891 
102*2064.919891 102*2062.021834 
102*2062.021834 102*2059.123776 
102*2059.123776 102*2056.225719 
102*2056.225719 102*2053.327661 
102*2053.327661 102*2050.429604 
102*2050.429604 102*2047.531546 
102*2047.531546 102*2044.633489 
102*2044.633489 102*2041.735431 
102*2041.735431 102*2038.837374 
102*2038.837374 102*2035.939316 
102*2035.939316 102*2033.041259 
102*2033.041259 102*2030.143201 
102*2030.143201 102*2027.245144 
102*2027.245144 102*2024.347086 
102*2024.347086 102*2021.449029 
102*2021.449029 102*2018.550971 
102*2018.550971 102*2015.652914 
102*2015.652914 102*2012.754856 
102*2012.754856 102*2009.856799 
102*2009.856799 102*2006.958741 
102*2006.958741 102*2004.060684 
102*2004.060684 102*2001.162626 
102*2001.162626 102*1998.264569 
102*1998.264569 102*1995.366511 
102*1995.366511 102*1992.468454 
102*1992.468454 102*1989.570396 
102*1989.570396 102*1986.672339 
102*1986.672339 102*1983.774281 
102*1983.774281 102*1980.876224 
102*1980.876224 102*1977.978166 
102*1977.978166 102*1975.080109 
102*1975.080109 102*1972.182052 
102*1972.182052 102*1969.283994 
102*1969.283994 102*1966.385937 
102*1966.385937 102*1963.487879 
102*1963.487879 102*1960.589822 
102*1960.589822 102*1957.691764 
102*1957.691764 102*1954.793707 
102*1954.793707 102*1951.895649 
102*1951.895649 102*1948.997592 
102*2099.298523 102*2096.400466 
102*2096.400466 102*2093.502408 
102*2093.502408 102*2090.604351 
102*2090.604351 102*2087.706293 
102*2087.706293 102*2084.808236 
102*2084.808236 102*2081.910178 
102*2081.910178 102*2079.012121 
102*2079.012121 102*2076.114063 
102*2076.114063 102*2073.216006 
102*2073.216006 102*2070.317948 
102*2070.317948 102*2067.419891 
102*2067.419891 102*2064.521834 
102*2064.521834 102*2061.623776 
102*2061.623776 102*2058.725719 
102*2058.725719 102*2055.827661 
102*2055.827661 102*2052.929604 
102*2052.929604 102*2050.031546 
102*2050.031546 102*2047.133489 
102*2047.133489 102*2044.235431 
102*2044.235431 102*2041.337374 
102*2041.337374 102*2038.439316 
102*2038.439316 102*2035.541259 
102*2035.541259 102*2032.643201 
102*2032.643201 102*2029.745144 
102*2029.745144 102*2026.847086 
102*2026.847086 102*2023.949029 
102*2023.949029 102*2021.050971 
102*2021.050971 102*2018.152914 
102*2018.152914 102*2015.254856 
102*2015.254856 102*2012.356799 
102*2012.356799 102*2009.458741 
102*2009.458741 102*2006.560684 
102*2006.560684 102*2003.662626 
102*2003.662626 102*2000.764569 
102*2000.764569 102*1997.866511 
102*1997.866511 102*1994.968454 
102*1994.968454 102*1992.070396 
102*1992.070396 102*1989.172339 
102*1989.172339 102*1986.274281 
102*1986.274281 102*1983.376224 
102*1983.376224 102*1980.478166 