ZCORN
102*2080.038945 102*2077.018607 
102*2077.018607 102*2073.998270 
102*2073.998270 102*2070.977932 
102*2070.977932 102*2067.957594 
102*2067.957594 102*2064.937257 
102*2064.937257 102*2061.916919 
102*2061.916919 102*2058.896582 
102*2058.896582 102*2055.876244 
102*2055.876244 102*2052.855907 
102*2052.855907 102*2049.835569 
102*2049.835569 102*2046.815232 
102*2046.815232 102*2043.794894 
102*2043.794894 102*2040.774557 
102*2040.774557 102*2037.754219 
102*2037.754219 102*2034.733882 
102*2034.733882 102*2031.713544 
102*2031.713544 102*2028.693207 
102*2028.693207 102*2025.672869 
102*2025.672869 102*2022.652531 
102*2022.652531 102*2019.632194 
102*2019.632194 102*2016.611856 
102*2016.611856 102*2013.591519 
102*2013.591519 102*2010.571181 
102*2010.571181 102*2007.550844 
102*2007.550844 102*2004.530506 
102*2004.530506 102*2001.510169 
102*2001.510169 102*1998.489831 
102*1998.489831 102*1995.469494 
102*1995.469494 102*1992.449156 
102*1992.449156 102*1989.428819 
102*1989.428819 102*1986.408481 
102*1986.408481 102*1983.388144 
102*1983.388144 102*1980.367806 
102*1980.367806 102*1977.347469 
102*1977.347469 102*1974.327131 
102*1974.327131 102*1971.306793 
102*1971.306793 102*1968.286456 
102*1968.286456 102*1965.266118 
102*1965.266118 102*1962.245781 
102*1962.245781 102*1959.225443 
102*1959.225443 102*1956.205106 
102*1956.205106 102*1953.184768 
102*1953.184768 102*1950.164431 
102*1950.164431 102*1947.144093 
102*1947.144093 102*1944.123756 
102*1944.123756 102*1941.103418 
102*1941.103418 102*1938.083081 
102*1938.083081 102*1935.062743 
102*1935.062743 102*1932.042406 
102*1932.042406 102*1929.022068 
102*1929.022068 102*1926.001730 
102*2082.538945 102*2079.518607 
102*2079.518607 102*2076.498270 
102*2076.498270 102*2073.477932 
102*2073.477932 102*2070.457594 
102*2070.457594 102*2067.437257 
102*2067.437257 102*2064.416919 
102*2064.416919 102*2061.396582 
102*2061.396582 102*2058.376244 
102*2058.376244 102*2055.355907 
102*2055.355907 102*2052.335569 
102*2052.335569 102*2049.315232 
102*2049.315232 102*2046.294894 
102*2046.294894 102*2043.274557 
102*2043.274557 102*2040.254219 
102*2040.254219 102*2037.233882 
102*2037.233882 102*2034.213544 
102*2034.213544 102*2031.193207 
102*2031.193207 102*2028.172869 
102*2028.172869 102*2025.152531 
102*2025.152531 102*2022.132194 
102*2022.132194 102*2019.111856 
102*2019.111856 102*2016.091519 
102*2016.091519 102*2013.071181 
102*2013.071181 102*2010.050844 
102*2010.050844 102*2007.030506 
102*2007.030506 102*2004.010169 
102*2004.010169 102*2000.989831 
102*2000.989831 102*1997.969494 
102*1997.969494 102*1994.949156 
102*1994.949156 102*1991.928819 
102*1991.928819 102*1988.908481 
102*1988.908481 102*1985.888144 
102*1985.888144 102*1982.867806 
102*1982.867806 102*1979.847469 
102*1979.847469 102*1976.827131 
102*1976.827131 102*1973.806793 
102*1973.806793 102*1970.786456 
102*1970.786456 102*1967.766118 
102*1967.766118 102*1964.745781 
102*1964.745781 102*1961.725443 
102*1961.725443 102*1958.705106 
102*1958.705106 102*1955.684768 
102*1955.684768 102*1952.664431 
102*1952.664431 102*1949.644093 
102*1949.644093 102*1946.623756 
102*1946.623756 102*1943.603418 
102*1943.603418 102*1940.583081 
102*1940.583081 102*1937.562743 
102*1937.562743 102*1934.542406 
102*1934.542406 102*1931.522068 
102*1931.522068 102*1928.501730 
102*2082.538945 102*2079.518607 
102*2079.518607 102*2076.498270 
102*2076.498270 102*2073.477932 
102*2073.477932 102*2070.457594 
102*2070.457594 102*2067.437257 
102*2067.437257 102*2064.416919 
102*2064.416919 102*2061.396582 
102*2061.396582 102*2058.376244 
102*2058.376244 102*2055.355907 
102*2055.355907 102*2052.335569 
102*2052.335569 102*2049.315232 
102*2049.315232 102*2046.294894 
102*2046.294894 102*2043.274557 
102*2043.274557 102*2040.254219 
102*2040.254219 102*2037.233882 
102*2037.233882 102*2034.213544 
102*2034.213544 102*2031.193207 
102*2031.193207 102*2028.172869 
102*2028.172869 102*2025.152531 
102*2025.152531 102*2022.132194 
102*2022.132194 102*2019.111856 
102*2019.111856 102*2016.091519 
102*2016.091519 102*2013.071181 
102*2013.071181 102*2010.050844 
102*2010.050844 102*2007.030506 
102*2007.030506 102*2004.010169 
102*2004.010169 102*2000.989831 
102*2000.989831 102*1997.969494 
102*1997.969494 102*1994.949156 
102*1994.949156 102*1991.928819 
102*1991.928819 102*1988.908481 
102*1988.908481 102*1985.888144 
102*1985.888144 102*1982.867806 
102*1982.867806 102*1979.847469 
102*1979.847469 102*1976.827131 
102*1976.827131 102*1973.806793 
102*1973.806793 102*1970.786456 
102*1970.786456 102*1967.766118 
102*1967.766118 102*1964.745781 
102*1964.745781 102*1961.725443 
102*1961.725443 102*1958.705106 
102*1958.705106 102*1955.684768 
102*1955.684768 102*1952.664431 
102*1952.664431 102*1949.644093 
102*1949.644093 102*1946.623756 
102*1946.623756 102*1943.603418 
102*1943.603418 102*1940.583081 
102*1940.583081 102*1937.562743 
102*1937.562743 102*1934.542406 
102*1934.542406 102*1931.522068 
102*1931.522068 102*1928.501730 
102*2085.038945 102*2082.018607 
102*2082.018607 102*2078.998270 
102*2078.998270 102*2075.977932 
102*2075.977932 102*2072.957594 
102*2072.957594 102*2069.937257 
102*2069.937257 102*2066.916919 
102*2066.916919 102*2063.896582 
102*2063.896582 102*2060.876244 
102*2060.876244 102*2057.855907 
102*2057.855907 102*2054.835569 
102*2054.835569 102*2051.815232 
102*2051.815232 102*2048.794894 
102*2048.794894 102*2045.774557 
102*2045.774557 102*2042.754219 
102*2042.754219 102*2039.733882 
102*2039.733882 102*2036.713544 
102*2036.713544 102*2033.693207 
102*2033.693207 102*2030.672869 
102*2030.672869 102*2027.652531 
102*2027.652531 102*2024.632194 
102*2024.632194 102*2021.611856 
102*2021.611856 102*2018.591519 
102*2018.591519 102*2015.571181 
102*2015.571181 102*2012.550844 
102*2012.550844 102*2009.530506 
102*2009.530506 102*2006.510169 
102*2006.510169 102*2003.489831 
102*2003.489831 102*2000.469494 
102*2000.469494 102*1997.449156 
102*1997.449156 102*1994.428819 
102*1994.428819 102*1991.408481 
102*1991.408481 102*1988.388144 
102*1988.388144 102*1985.367806 
102*1985.367806 102*1982.347469 
102*1982.347469 102*1979.327131 
102*1979.327131 102*1976.306793 
102*1976.306793 102*1973.286456 
102*1973.286456 102*1970.266118 
102*1970.266118 102*1967.245781 
102*1967.245781 102*1964.225443 
102*1964.225443 102*1961.205106 
102*1961.205106 102*1958.184768 
102*1958.184768 102*1955.164431 
102*1955.164431 102*1952.144093 
102*1952.144093 102*1949.123756 
102*1949.123756 102*1946.103418 
102*1946.103418 102*1943.083081 
102*1943.083081 102*1940.062743 
102*1940.062743 102*1937.042406 
102*1937.042406 102*1934.022068 
102*1934.022068 102*1931.001730 
102*2085.038945 102*2082.018607 
102*2082.018607 102*2078.998270 
102*2078.998270 102*2075.977932 
102*2075.977932 102*2072.957594 
102*2072.957594 102*2069.937257 
102*2069.937257 102*2066.916919 
102*2066.916919 102*2063.896582 
102*2063.896582 102*2060.876244 
102*2060.876244 102*2057.855907 
102*2057.855907 102*2054.835569 
102*2054.835569 102*2051.815232 
102*2051.815232 102*2048.794894 
102*2048.794894 102*2045.774557 
102*2045.774557 102*2042.754219 
102*2042.754219 102*2039.733882 
102*2039.733882 102*2036.713544 
102*2036.713544 102*2033.693207 
102*2033.693207 102*2030.672869 
102*2030.672869 102*2027.652531 
102*2027.652531 102*2024.632194 
102*2024.632194 102*2021.611856 
102*2021.611856 102*2018.591519 
102*2018.591519 102*2015.571181 
102*2015.571181 102*2012.550844 
102*2012.550844 102*2009.530506 
102*2009.530506 102*2006.510169 
102*2006.510169 102*2003.489831 
102*2003.489831 102*2000.469494 
102*2000.469494 102*1997.449156 
102*1997.449156 102*1994.428819 
102*1994.428819 102*1991.408481 
102*1991.408481 102*1988.388144 
102*1988.388144 102*1985.367806 
102*1985.367806 102*1982.347469 
102*1982.347469 102*1979.327131 
102*1979.327131 102*1976.306793 
102*1976.306793 102*1973.286456 
102*1973.286456 102*1970.266118 
102*1970.266118 102*1967.245781 
102*1967.245781 102*1964.225443 
102*1964.225443 102*1961.205106 
102*1961.205106 102*1958.184768 
102*1958.184768 102*1955.164431 
102*1955.164431 102*1952.144093 
102*1952.144093 102*1949.123756 
102*1949.123756 102*1946.103418 
102*1946.103418 102*1943.083081 
102*1943.083081 102*1940.062743 
102*1940.062743 102*1937.042406 
102*1937.042406 102*1934.022068 
102*1934.022068 102*1931.001730 
102*2087.538945 102*2084.518607 
102*2084.518607 102*2081.498270 
102*2081.498270 102*2078.477932 
102*2078.477932 102*2075.457594 
102*2075.457594 102*2072.437257 
102*2072.437257 102*2069.416919 
102*2069.416919 102*2066.396582 
102*2066.396582 102*2063.376244 
102*2063.376244 102*2060.355907 
102*2060.355907 102*2057.335569 
102*2057.335569 102*2054.315232 
102*2054.315232 102*2051.294894 
102*2051.294894 102*2048.274557 
102*2048.274557 102*2045.254219 
102*2045.254219 102*2042.233882 
102*2042.233882 102*2039.213544 
102*2039.213544 102*2036.193207 
102*2036.193207 102*2033.172869 
102*2033.172869 102*2030.152531 
102*2030.152531 102*2027.132194 
102*2027.132194 102*2024.111856 
102*2024.111856 102*2021.091519 
102*2021.091519 102*2018.071181 
102*2018.071181 102*2015.050844 
102*2015.050844 102*2012.030506 
102*2012.030506 102*2009.010169 
102*2009.010169 102*2005.989831 
102*2005.989831 102*2002.969494 
102*2002.969494 102*1999.949156 
102*1999.949156 102*1996.928819 
102*1996.928819 102*1993.908481 
102*1993.908481 102*1990.888144 
102*1990.888144 102*1987.867806 
102*1987.867806 102*1984.847469 
102*1984.847469 102*1981.827131 
102*1981.827131 102*1978.806793 
102*1978.806793 102*1975.786456 
102*1975.786456 102*1972.766118 
102*1972.766118 102*1969.745781 
102*1969.745781 102*1966.725443 
102*1966.725443 102*1963.705106 
102*1963.705106 102*1960.684768 
102*1960.684768 102*1957.664431 
102*1957.664431 102*1954.644093 
102*1954.644093 102*1951.623756 
102*1951.623756 102*1948.603418 
102*1948.603418 102*1945.583081 
102*1945.583081 102*1942.562743 
102*1942.562743 102*1939.542406 
102*1939.542406 102*1936.522068 
102*1936.522068 102*1933.501730 
102*2087.538945 102*2084.518607 
102*2084.518607 102*2081.498270 
102*2081.498270 102*2078.477932 
102*2078.477932 102*2075.457594 
102*2075.457594 102*2072.437257 
102*2072.437257 102*2069.416919 
102*2069.416919 102*2066.396582 
102*2066.396582 102*2063.376244 
102*2063.376244 102*2060.355907 
102*2060.355907 102*2057.335569 
102*2057.335569 102*2054.315232 
102*2054.315232 102*2051.294894 
102*2051.294894 102*2048.274557 
102*2048.274557 102*2045.254219 
102*2045.254219 102*2042.233882 
102*2042.233882 102*2039.213544 
102*2039.213544 102*2036.193207 
102*2036.193207 102*2033.172869 
102*2033.172869 102*2030.152531 
102*2030.152531 102*2027.132194 
102*2027.132194 102*2024.111856 
102*2024.111856 102*2021.091519 
102*2021.091519 102*2018.071181 
102*2018.071181 102*2015.050844 
102*2015.050844 102*2012.030506 
102*2012.030506 102*2009.010169 
102*2009.010169 102*2005.989831 
102*2005.989831 102*2002.969494 
102*2002.969494 102*1999.949156 
102*1999.949156 102*1996.928819 
102*1996.928819 102*1993.908481 
102*1993.908481 102*1990.888144 
102*1990.888144 102*1987.867806 
102*1987.867806 102*1984.847469 
102*1984.847469 102*1981.827131 
102*1981.827131 102*1978.806793 
102*1978.806793 102*1975.786456 
102*1975.786456 102*1972.766118 
102*1972.766118 102*1969.745781 
102*1969.745781 102*1966.725443 
102*1966.725443 102*1963.705106 
102*1963.705106 102*1960.684768 
102*1960.684768 102*1957.664431 
102*1957.664431 102*1954.644093 
102*1954.644093 102*1951.623756 
102*1951.623756 102*1948.603418 
102*1948.603418 102*1945.583081 
102*1945.583081 102*1942.562743 
102*1942.562743 102*1939.542406 
102*1939.542406 102*1936.522068 
102*1936.522068 102*1933.501730 
102*2090.038945 102*2087.018607 
102*2087.018607 102*2083.998270 
102*2083.998270 102*2080.977932 
102*2080.977932 102*2077.957594 
102*2077.957594 102*2074.937257 
102*2074.937257 102*2071.916919 
102*2071.916919 102*2068.896582 
102*2068.896582 102*2065.876244 
102*2065.876244 102*2062.855907 
102*2062.855907 102*2059.835569 
102*2059.835569 102*2056.815232 
102*2056.815232 102*2053.794894 
102*2053.794894 102*2050.774557 
102*2050.774557 102*2047.754219 
102*2047.754219 102*2044.733882 
102*2044.733882 102*2041.713544 
102*2041.713544 102*2038.693207 
102*2038.693207 102*2035.672869 
102*2035.672869 102*2032.652531 
102*2032.652531 102*2029.632194 
102*2029.632194 102*2026.611856 
102*2026.611856 102*2023.591519 
102*2023.591519 102*2020.571181 
102*2020.571181 102*2017.550844 
102*2017.550844 102*2014.530506 
102*2014.530506 102*2011.510169 
102*2011.510169 102*2008.489831 
102*2008.489831 102*2005.469494 
102*2005.469494 102*2002.449156 
102*2002.449156 102*1999.428819 
102*1999.428819 102*1996.408481 
102*1996.408481 102*1993.388144 
102*1993.388144 102*1990.367806 
102*1990.367806 102*1987.347469 
102*1987.347469 102*1984.327131 
102*1984.327131 102*1981.306793 
102*1981.306793 102*1978.286456 
102*1978.286456 102*1975.266118 
102*1975.266118 102*1972.245781 
102*1972.245781 102*1969.225443 
102*1969.225443 102*1966.205106 
102*1966.205106 102*1963.184768 
102*1963.184768 102*1960.164431 
102*1960.164431 102*1957.144093 
102*1957.144093 102*1954.123756 
102*1954.123756 102*1951.103418 
102*1951.103418 102*1948.083081 
102*1948.083081 102*1945.062743 
102*1945.062743 102*1942.042406 
102*1942.042406 102*1939.022068 
102*1939.022068 102*1936.001730 
102*2090.038945 102*2087.018607 
102*2087.018607 102*2083.998270 
102*2083.998270 102*2080.977932 
102*2080.977932 102*2077.957594 
102*2077.957594 102*2074.937257 
102*2074.937257 102*2071.916919 
102*2071.916919 102*2068.896582 
102*2068.896582 102*2065.876244 
102*2065.876244 102*2062.855907 
102*2062.855907 102*2059.835569 
102*2059.835569 102*2056.815232 
102*2056.815232 102*2053.794894 
102*2053.794894 102*2050.774557 
102*2050.774557 102*2047.754219 
102*2047.754219 102*2044.733882 
102*2044.733882 102*2041.713544 
102*2041.713544 102*2038.693207 
102*2038.693207 102*2035.672869 
102*2035.672869 102*2032.652531 
102*2032.652531 102*2029.632194 
102*2029.632194 102*2026.611856 
102*2026.611856 102*2023.591519 
102*2023.591519 102*2020.571181 
102*2020.571181 102*2017.550844 
102*2017.550844 102*2014.530506 
102*2014.530506 102*2011.510169 
102*2011.510169 102*2008.489831 
102*2008.489831 102*2005.469494 
102*2005.469494 102*2002.449156 
102*2002.449156 102*1999.428819 
102*1999.428819 102*1996.408481 
102*1996.408481 102*1993.388144 
102*1993.388144 102*1990.367806 
102*1990.367806 102*1987.347469 
102*1987.347469 102*1984.327131 
102*1984.327131 102*1981.306793 
102*1981.306793 102*1978.286456 
102*1978.286456 102*1975.266118 
102*1975.266118 102*1972.245781 
102*1972.245781 102*1969.225443 
102*1969.225443 102*1966.205106 
102*1966.205106 102*1963.184768 
102*1963.184768 102*1960.164431 
102*1960.164431 102*1957.144093 
102*1957.144093 102*1954.123756 
102*1954.123756 102*1951.103418 
102*1951.103418 102*1948.083081 
102*1948.083081 102*1945.062743 
102*1945.062743 102*1942.042406 
102*1942.042406 102*1939.022068 
102*1939.022068 102*1936.001730 
102*2092.538945 102*2089.518607 
102*2089.518607 102*2086.498270 
102*2086.498270 102*2083.477932 
102*2083.477932 102*2080.457594 
102*2080.457594 102*2077.437257 
102*2077.437257 102*2074.416919 
102*2074.416919 102*2071.396582 
102*2071.396582 102*2068.376244 
102*2068.376244 102*2065.355907 
102*2065.355907 102*2062.335569 
102*2062.335569 102*2059.315232 
102*2059.315232 102*2056.294894 
102*2056.294894 102*2053.274557 
102*2053.274557 102*2050.254219 
102*2050.254219 102*2047.233882 
102*2047.233882 102*2044.213544 
102*2044.213544 102*2041.193207 
102*2041.193207 102*2038.172869 
102*2038.172869 102*2035.152531 
102*2035.152531 102*2032.132194 
102*2032.132194 102*2029.111856 
102*2029.111856 102*2026.091519 
102*2026.091519 102*2023.071181 
102*2023.071181 102*2020.050844 
102*2020.050844 102*2017.030506 
102*2017.030506 102*2014.010169 
102*2014.010169 102*2010.989831 
102*2010.989831 102*2007.969494 
102*2007.969494 102*2004.949156 
102*2004.949156 102*2001.928819 
102*2001.928819 102*1998.908481 
102*1998.908481 102*1995.888144 
102*1995.888144 102*1992.867806 
102*1992.867806 102*1989.847469 
102*1989.847469 102*1986.827131 
102*1986.827131 102*1983.806793 
102*1983.806793 102*1980.786456 
102*1980.786456 102*1977.766118 
102*1977.766118 102*1974.745781 
102*1974.745781 102*1971.725443 
102*1971.725443 102*1968.705106 
102*1968.705106 102*1965.684768 
102*1965.684768 102*1962.664431 
102*1962.664431 102*1959.644093 
102*1959.644093 102*1956.623756 
102*1956.623756 102*1953.603418 
102*1953.603418 102*1950.583081 
102*1950.583081 102*1947.562743 
102*1947.562743 102*1944.542406 
102*1944.542406 102*1941.522068 
102*1941.522068 102*1938.501730 
102*2092.538945 102*2089.518607 
102*2089.518607 102*2086.498270 
102*2086.498270 102*2083.477932 
102*2083.477932 102*2080.457594 
102*2080.457594 102*2077.437257 
102*2077.437257 102*2074.416919 
102*2074.416919 102*2071.396582 
102*2071.396582 102*2068.376244 
102*2068.376244 102*2065.355907 
102*2065.355907 102*2062.335569 
102*2062.335569 102*2059.315232 
102*2059.315232 102*2056.294894 
102*2056.294894 102*2053.274557 
102*2053.274557 102*2050.254219 
102*2050.254219 102*2047.233882 
102*2047.233882 102*2044.213544 
102*2044.213544 102*2041.193207 
102*2041.193207 102*2038.172869 
102*2038.172869 102*2035.152531 
102*2035.152531 102*2032.132194 
102*2032.132194 102*2029.111856 
102*2029.111856 102*2026.091519 
102*2026.091519 102*2023.071181 
102*2023.071181 102*2020.050844 
102*2020.050844 102*2017.030506 
102*2017.030506 102*2014.010169 
102*2014.010169 102*2010.989831 
102*2010.989831 102*2007.969494 
102*2007.969494 102*2004.949156 
102*2004.949156 102*2001.928819 
102*2001.928819 102*1998.908481 
102*1998.908481 102*1995.888144 
102*1995.888144 102*1992.867806 
102*1992.867806 102*1989.847469 
102*1989.847469 102*1986.827131 
102*1986.827131 102*1983.806793 
102*1983.806793 102*1980.786456 
102*1980.786456 102*1977.766118 
102*1977.766118 102*1974.745781 
102*1974.745781 102*1971.725443 
102*1971.725443 102*1968.705106 
102*1968.705106 102*1965.684768 
102*1965.684768 102*1962.664431 
102*1962.664431 102*1959.644093 
102*1959.644093 102*1956.623756 
102*1956.623756 102*1953.603418 
102*1953.603418 102*1950.583081 
102*1950.583081 102*1947.562743 
102*1947.562743 102*1944.542406 
102*1944.542406 102*1941.522068 
102*1941.522068 102*1938.501730 
102*2095.038945 102*2092.018607 
102*2092.018607 102*2088.998270 
102*2088.998270 102*2085.977932 
102*2085.977932 102*2082.957594 
102*2082.957594 102*2079.937257 
102*2079.937257 102*2076.916919 
102*2076.916919 102*2073.896582 
102*2073.896582 102*2070.876244 
102*2070.876244 102*2067.855907 
102*2067.855907 102*2064.835569 
102*2064.835569 102*2061.815232 
102*2061.815232 102*2058.794894 
102*2058.794894 102*2055.774557 
102*2055.774557 102*2052.754219 
102*2052.754219 102*2049.733882 
102*2049.733882 102*2046.713544 
102*2046.713544 102*2043.693207 
102*2043.693207 102*2040.672869 
102*2040.672869 102*2037.652531 
102*2037.652531 102*2034.632194 
102*2034.632194 102*2031.611856 
102*2031.611856 102*2028.591519 
102*2028.591519 102*2025.571181 
102*2025.571181 102*2022.550844 
102*2022.550844 102*2019.530506 
102*2019.530506 102*2016.510169 
102*2016.510169 102*2013.489831 
102*2013.489831 102*2010.469494 
102*2010.469494 102*2007.449156 
102*2007.449156 102*2004.428819 
102*2004.428819 102*2001.408481 
102*2001.408481 102*1998.388144 
102*1998.388144 102*1995.367806 
102*1995.367806 102*1992.347469 
102*1992.347469 102*1989.327131 
102*1989.327131 102*1986.306793 
102*1986.306793 102*1983.286456 
102*1983.286456 102*1980.266118 
102*1980.266118 102*1977.245781 
102*1977.245781 102*1974.225443 
102*1974.225443 102*1971.205106 
102*1971.205106 102*1968.184768 
102*1968.184768 102*1965.164431 
102*1965.164431 102*1962.144093 
102*1962.144093 102*1959.123756 
102*1959.123756 102*1956.103418 
102*1956.103418 102*1953.083081 
102*1953.083081 102*1950.062743 
102*1950.062743 102*1947.042406 
102*1947.042406 102*1944.022068 
102*1944.022068 102*1941.001730 
102*2095.038945 102*2092.018607 
102*2092.018607 102*2088.998270 
102*2088.998270 102*2085.977932 
102*2085.977932 102*2082.957594 
102*2082.957594 102*2079.937257 
102*2079.937257 102*2076.916919 
102*2076.916919 102*2073.896582 
102*2073.896582 102*2070.876244 
102*2070.876244 102*2067.855907 
102*2067.855907 102*2064.835569 
102*2064.835569 102*2061.815232 
102*2061.815232 102*2058.794894 
102*2058.794894 102*2055.774557 
102*2055.774557 102*2052.754219 
102*2052.754219 102*2049.733882 
102*2049.733882 102*2046.713544 
102*2046.713544 102*2043.693207 
102*2043.693207 102*2040.672869 
102*2040.672869 102*2037.652531 
102*2037.652531 102*2034.632194 
102*2034.632194 102*2031.611856 
102*2031.611856 102*2028.591519 
102*2028.591519 102*2025.571181 
102*2025.571181 102*2022.550844 
102*2022.550844 102*2019.530506 
102*2019.530506 102*2016.510169 
102*2016.510169 102*2013.489831 
102*2013.489831 102*2010.469494 
102*2010.469494 102*2007.449156 
102*2007.449156 102*2004.428819 
102*2004.428819 102*2001.408481 
102*2001.408481 102*1998.388144 
102*1998.388144 102*1995.367806 
102*1995.367806 102*1992.347469 
102*1992.347469 102*1989.327131 
102*1989.327131 102*1986.306793 
102*1986.306793 102*1983.286456 
102*1983.286456 102*1980.266118 
102*1980.266118 102*1977.245781 
102*1977.245781 102*1974.225443 
102*1974.225443 102*1971.205106 
102*1971.205106 102*1968.184768 
102*1968.184768 102*1965.164431 
102*1965.164431 102*1962.144093 
102*1962.144093 102*1959.123756 
102*1959.123756 102*1956.103418 
102*1956.103418 102*1953.083081 
102*1953.083081 102*1950.062743 
102*1950.062743 102*1947.042406 
102*1947.042406 102*1944.022068 
102*1944.022068 102*1941.001730 
102*2097.538945 102*2094.518607 
102*2094.518607 102*2091.498270 
102*2091.498270 102*2088.477932 
102*2088.477932 102*2085.457594 
102*2085.457594 102*2082.437257 
102*2082.437257 102*2079.416919 
102*2079.416919 102*2076.396582 
102*2076.396582 102*2073.376244 
102*2073.376244 102*2070.355907 
102*2070.355907 102*2067.335569 
102*2067.335569 102*2064.315232 
102*2064.315232 102*2061.294894 
102*2061.294894 102*2058.274557 
102*2058.274557 102*2055.254219 
102*2055.254219 102*2052.233882 
102*2052.233882 102*2049.213544 
102*2049.213544 102*2046.193207 
102*2046.193207 102*2043.172869 
102*2043.172869 102*2040.152531 
102*2040.152531 102*2037.132194 
102*2037.132194 102*2034.111856 
102*2034.111856 102*2031.091519 
102*2031.091519 102*2028.071181 
102*2028.071181 102*2025.050844 
102*2025.050844 102*2022.030506 
102*2022.030506 102*2019.010169 
102*2019.010169 102*2015.989831 
102*2015.989831 102*2012.969494 
102*2012.969494 102*2009.949156 
102*2009.949156 102*2006.928819 
102*2006.928819 102*2003.908481 
102*2003.908481 102*2000.888144 
102*2000.888144 102*1997.867806 
102*1997.867806 102*1994.847469 
102*1994.847469 102*1991.827131 
102*1991.827131 102*1988.806793 
102*1988.806793 102*1985.786456 
102*1985.786456 102*1982.766118 
102*1982.766118 102*1979.745781 
102*1979.745781 102*1976.725443 
102*1976.725443 102*1973.705106 
102*1973.705106 102*1970.684768 
102*1970.684768 102*1967.664431 
102*1967.664431 102*1964.644093 
102*1964.644093 102*1961.623756 
102*1961.623756 102*1958.603418 
102*1958.603418 102*1955.583081 
102*1955.583081 102*1952.562743 
102*1952.562743 102*1949.542406 
102*1949.542406 102*1946.522068 
102*1946.522068 102*1943.501730 
102*2097.538945 102*2094.518607 
102*2094.518607 102*2091.498270 
102*2091.498270 102*2088.477932 
102*2088.477932 102*2085.457594 
102*2085.457594 102*2082.437257 
102*2082.437257 102*2079.416919 
102*2079.416919 102*2076.396582 
102*2076.396582 102*2073.376244 
102*2073.376244 102*2070.355907 
102*2070.355907 102*2067.335569 
102*2067.335569 102*2064.315232 
102*2064.315232 102*2061.294894 
102*2061.294894 102*2058.274557 
102*2058.274557 102*2055.254219 
102*2055.254219 102*2052.233882 
102*2052.233882 102*2049.213544 
102*2049.213544 102*2046.193207 
102*2046.193207 102*2043.172869 
102*2043.172869 102*2040.152531 
102*2040.152531 102*2037.132194 
102*2037.132194 102*2034.111856 
102*2034.111856 102*2031.091519 
102*2031.091519 102*2028.071181 
102*2028.071181 102*2025.050844 
102*2025.050844 102*2022.030506 
102*2022.030506 102*2019.010169 
102*2019.010169 102*2015.989831 
102*2015.989831 102*2012.969494 
102*2012.969494 102*2009.949156 
102*2009.949156 102*2006.928819 
102*2006.928819 102*2003.908481 
102*2003.908481 102*2000.888144 
102*2000.888144 102*1997.867806 
102*1997.867806 102*1994.847469 
102*1994.847469 102*1991.827131 
102*1991.827131 102*1988.806793 
102*1988.806793 102*1985.786456 
102*1985.786456 102*1982.766118 
102*1982.766118 102*1979.745781 
102*1979.745781 102*1976.725443 
102*1976.725443 102*1973.705106 
102*1973.705106 102*1970.684768 
102*1970.684768 102*1967.664431 
102*1967.664431 102*1964.644093 
102*1964.644093 102*1961.623756 
102*1961.623756 102*1958.603418 
102*1958.603418 102*1955.583081 
102*1955.583081 102*1952.562743 
102*1952.562743 102*1949.542406 
102*1949.542406 102*1946.522068 
102*1946.522068 102*1943.501730 
102*2100.038945 102*2097.018607 
102*2097.018607 102*2093.998270 
102*2093.998270 102*2090.977932 
102*2090.977932 102*2087.957594 
102*2087.957594 102*2084.937257 
102*2084.937257 102*2081.916919 
102*2081.916919 102*2078.896582 
102*2078.896582 102*2075.876244 
102*2075.876244 102*2072.855907 
102*2072.855907 102*2069.835569 
102*2069.835569 102*2066.815232 
102*2066.815232 102*2063.794894 
102*2063.794894 102*2060.774557 
102*2060.774557 102*2057.754219 
102*2057.754219 102*2054.733882 
102*2054.733882 102*2051.713544 
102*2051.713544 102*2048.693207 
102*2048.693207 102*2045.672869 
102*2045.672869 102*2042.652531 
102*2042.652531 102*2039.632194 
102*2039.632194 102*2036.611856 
102*2036.611856 102*2033.591519 
102*2033.591519 102*2030.571181 
102*2030.571181 102*2027.550844 
102*2027.550844 102*2024.530506 
102*2024.530506 102*2021.510169 
102*2021.510169 102*2018.489831 
102*2018.489831 102*2015.469494 
102*2015.469494 102*2012.449156 
102*2012.449156 102*2009.428819 
102*2009.428819 102*2006.408481 
102*2006.408481 102*2003.388144 
102*2003.388144 102*2000.367806 
102*2000.367806 102*1997.347469 
102*1997.347469 102*1994.327131 
102*1994.327131 102*1991.306793 
102*1991.306793 102*1988.286456 
102*1988.286456 102*1985.266118 
102*1985.266118 102*1982.245781 
102*1982.245781 102*1979.225443 
102*1979.225443 102*1976.205106 
102*1976.205106 102*1973.184768 
102*1973.184768 102*1970.164431 
102*1970.164431 102*1967.144093 
102*1967.144093 102*1964.123756 
102*1964.123756 102*1961.103418 
102*1961.103418 102*1958.083081 
102*1958.083081 102*1955.062743 
102*1955.062743 102*1952.042406 
102*1952.042406 102*1949.022068 
102*1949.022068 102*1946.001730 
102*2100.038945 102*2097.018607 
102*2097.018607 102*2093.998270 
102*2093.998270 102*2090.977932 
102*2090.977932 102*2087.957594 
102*2087.957594 102*2084.937257 
102*2084.937257 102*2081.916919 
102*2081.916919 102*2078.896582 
102*2078.896582 102*2075.876244 
102*2075.876244 102*2072.855907 
102*2072.855907 102*2069.835569 
102*2069.835569 102*2066.815232 
102*2066.815232 102*2063.794894 
102*2063.794894 102*2060.774557 
102*2060.774557 102*2057.754219 
102*2057.754219 102*2054.733882 
102*2054.733882 102*2051.713544 
102*2051.713544 102*2048.693207 
102*2048.693207 102*2045.672869 
102*2045.672869 102*2042.652531 
102*2042.652531 102*2039.632194 
102*2039.632194 102*2036.611856 
102*2036.611856 102*2033.591519 
102*2033.591519 102*2030.571181 
102*2030.571181 102*2027.550844 
102*2027.550844 102*2024.530506 
102*2024.530506 102*2021.510169 
102*2021.510169 102*2018.489831 
102*2018.489831 102*2015.469494 
102*2015.469494 102*2012.449156 
102*2012.449156 102*2009.428819 
102*2009.428819 102*2006.408481 
102*2006.408481 102*2003.388144 
102*2003.388144 102*2000.367806 
102*2000.367806 102*1997.347469 
102*1997.347469 102*1994.327131 
102*1994.327131 102*1991.306793 
102*1991.306793 102*1988.286456 
102*1988.286456 102*1985.266118 
102*1985.266118 102*1982.245781 
102*1982.245781 102*1979.225443 
102*1979.225443 102*1976.205106 
102*1976.205106 102*1973.184768 
102*1973.184768 102*1970.164431 
102*1970.164431 102*1967.144093 
102*1967.144093 102*1964.123756 
102*1964.123756 102*1961.103418 
102*1961.103418 102*1958.083081 
102*1958.083081 102*1955.062743 
102*1955.062743 102*1952.042406 
102*1952.042406 102*1949.022068 
102*1949.022068 102*1946.001730 
102*2102.538945 102*2099.518607 
102*2099.518607 102*2096.498270 
102*2096.498270 102*2093.477932 
102*2093.477932 102*2090.457594 
102*2090.457594 102*2087.437257 
102*2087.437257 102*2084.416919 
102*2084.416919 102*2081.396582 
102*2081.396582 102*2078.376244 
102*2078.376244 102*2075.355907 
102*2075.355907 102*2072.335569 
102*2072.335569 102*2069.315232 
102*2069.315232 102*2066.294894 
102*2066.294894 102*2063.274557 
102*2063.274557 102*2060.254219 
102*2060.254219 102*2057.233882 
102*2057.233882 102*2054.213544 
102*2054.213544 102*2051.193207 
102*2051.193207 102*2048.172869 
102*2048.172869 102*2045.152531 
102*2045.152531 102*2042.132194 
102*2042.132194 102*2039.111856 
102*2039.111856 102*2036.091519 
102*2036.091519 102*2033.071181 
102*2033.071181 102*2030.050844 
102*2030.050844 102*2027.030506 
102*2027.030506 102*2024.010169 
102*2024.010169 102*2020.989831 
102*2020.989831 102*2017.969494 
102*2017.969494 102*2014.949156 
102*2014.949156 102*2011.928819 
102*2011.928819 102*2008.908481 
102*2008.908481 102*2005.888144 
102*2005.888144 102*2002.867806 
102*2002.867806 102*1999.847469 
102*1999.847469 102*1996.827131 
102*1996.827131 102*1993.806793 
102*1993.806793 102*1990.786456 
102*1990.786456 102*1987.766118 
102*1987.766118 102*1984.745781 
102*1984.745781 102*1981.725443 
102*1981.725443 102*1978.705106 