ZCORN
102*2018.500791 102*2017.802648 
102*2017.802648 102*2017.104505 
102*2017.104505 102*2016.406362 
102*2016.406362 102*2015.708218 
102*2015.708218 102*2015.010075 
102*2015.010075 102*2014.311932 
102*2014.311932 102*2013.613789 
102*2013.613789 102*2012.915646 
102*2012.915646 102*2012.217503 
102*2012.217503 102*2011.519360 
102*2011.519360 102*2010.821217 
102*2010.821217 102*2010.123074 
102*2010.123074 102*2009.424931 
102*2009.424931 102*2008.726788 
102*2008.726788 102*2008.028645 
102*2008.028645 102*2007.330502 
102*2007.330502 102*2006.632359 
102*2006.632359 102*2005.934216 
102*2005.934216 102*2005.236073 
102*2005.236073 102*2004.537930 
102*2004.537930 102*2003.839787 
102*2003.839787 102*2003.141644 
102*2003.141644 102*2002.443501 
102*2002.443501 102*2001.745358 
102*2001.745358 102*2001.047215 
102*2001.047215 102*2000.349072 
102*2000.349072 102*1999.650928 
102*1999.650928 102*1998.952785 
102*1998.952785 102*1998.254642 
102*1998.254642 102*1997.556499 
102*1997.556499 102*1996.858356 
102*1996.858356 102*1996.160213 
102*1996.160213 102*1995.462070 
102*1995.462070 102*1994.763927 
102*1994.763927 102*1994.065784 
102*1994.065784 102*1993.367641 
102*1993.367641 102*1992.669498 
102*1992.669498 102*1991.971355 
102*1991.971355 102*1991.273212 
102*1991.273212 102*1990.575069 
102*1990.575069 102*1989.876926 
102*1989.876926 102*1989.178783 
102*1989.178783 102*1988.480640 
102*1988.480640 102*1987.782497 
102*1987.782497 102*1987.084354 
102*1987.084354 102*1986.386211 
102*1986.386211 102*1985.688068 
102*1985.688068 102*1984.989925 
102*1984.989925 102*1984.291782 
102*1984.291782 102*1983.593638 
102*1983.593638 102*1982.895495 
102*2021.000791 102*2020.302648 
102*2020.302648 102*2019.604505 
102*2019.604505 102*2018.906362 
102*2018.906362 102*2018.208218 
102*2018.208218 102*2017.510075 
102*2017.510075 102*2016.811932 
102*2016.811932 102*2016.113789 
102*2016.113789 102*2015.415646 
102*2015.415646 102*2014.717503 
102*2014.717503 102*2014.019360 
102*2014.019360 102*2013.321217 
102*2013.321217 102*2012.623074 
102*2012.623074 102*2011.924931 
102*2011.924931 102*2011.226788 
102*2011.226788 102*2010.528645 
102*2010.528645 102*2009.830502 
102*2009.830502 102*2009.132359 
102*2009.132359 102*2008.434216 
102*2008.434216 102*2007.736073 
102*2007.736073 102*2007.037930 
102*2007.037930 102*2006.339787 
102*2006.339787 102*2005.641644 
102*2005.641644 102*2004.943501 
102*2004.943501 102*2004.245358 
102*2004.245358 102*2003.547215 
102*2003.547215 102*2002.849072 
102*2002.849072 102*2002.150928 
102*2002.150928 102*2001.452785 
102*2001.452785 102*2000.754642 
102*2000.754642 102*2000.056499 
102*2000.056499 102*1999.358356 
102*1999.358356 102*1998.660213 
102*1998.660213 102*1997.962070 
102*1997.962070 102*1997.263927 
102*1997.263927 102*1996.565784 
102*1996.565784 102*1995.867641 
102*1995.867641 102*1995.169498 
102*1995.169498 102*1994.471355 
102*1994.471355 102*1993.773212 
102*1993.773212 102*1993.075069 
102*1993.075069 102*1992.376926 
102*1992.376926 102*1991.678783 
102*1991.678783 102*1990.980640 
102*1990.980640 102*1990.282497 
102*1990.282497 102*1989.584354 
102*1989.584354 102*1988.886211 
102*1988.886211 102*1988.188068 
102*1988.188068 102*1987.489925 
102*1987.489925 102*1986.791782 
102*1986.791782 102*1986.093638 
102*1986.093638 102*1985.395495 
102*2021.000791 102*2020.302648 
102*2020.302648 102*2019.604505 
102*2019.604505 102*2018.906362 
102*2018.906362 102*2018.208218 
102*2018.208218 102*2017.510075 
102*2017.510075 102*2016.811932 
102*2016.811932 102*2016.113789 
102*2016.113789 102*2015.415646 
102*2015.415646 102*2014.717503 
102*2014.717503 102*2014.019360 
102*2014.019360 102*2013.321217 
102*2013.321217 102*2012.623074 
102*2012.623074 102*2011.924931 
102*2011.924931 102*2011.226788 
102*2011.226788 102*2010.528645 
102*2010.528645 102*2009.830502 
102*2009.830502 102*2009.132359 
102*2009.132359 102*2008.434216 
102*2008.434216 102*2007.736073 
102*2007.736073 102*2007.037930 
102*2007.037930 102*2006.339787 
102*2006.339787 102*2005.641644 
102*2005.641644 102*2004.943501 
102*2004.943501 102*2004.245358 
102*2004.245358 102*2003.547215 
102*2003.547215 102*2002.849072 
102*2002.849072 102*2002.150928 
102*2002.150928 102*2001.452785 
102*2001.452785 102*2000.754642 
102*2000.754642 102*2000.056499 
102*2000.056499 102*1999.358356 
102*1999.358356 102*1998.660213 
102*1998.660213 102*1997.962070 
102*1997.962070 102*1997.263927 
102*1997.263927 102*1996.565784 
102*1996.565784 102*1995.867641 
102*1995.867641 102*1995.169498 
102*1995.169498 102*1994.471355 
102*1994.471355 102*1993.773212 
102*1993.773212 102*1993.075069 
102*1993.075069 102*1992.376926 
102*1992.376926 102*1991.678783 
102*1991.678783 102*1990.980640 
102*1990.980640 102*1990.282497 
102*1990.282497 102*1989.584354 
102*1989.584354 102*1988.886211 
102*1988.886211 102*1988.188068 
102*1988.188068 102*1987.489925 
102*1987.489925 102*1986.791782 
102*1986.791782 102*1986.093638 
102*1986.093638 102*1985.395495 
102*2023.500791 102*2022.802648 
102*2022.802648 102*2022.104505 
102*2022.104505 102*2021.406362 
102*2021.406362 102*2020.708218 
102*2020.708218 102*2020.010075 
102*2020.010075 102*2019.311932 
102*2019.311932 102*2018.613789 
102*2018.613789 102*2017.915646 
102*2017.915646 102*2017.217503 
102*2017.217503 102*2016.519360 
102*2016.519360 102*2015.821217 
102*2015.821217 102*2015.123074 
102*2015.123074 102*2014.424931 
102*2014.424931 102*2013.726788 
102*2013.726788 102*2013.028645 
102*2013.028645 102*2012.330502 
102*2012.330502 102*2011.632359 
102*2011.632359 102*2010.934216 
102*2010.934216 102*2010.236073 
102*2010.236073 102*2009.537930 
102*2009.537930 102*2008.839787 
102*2008.839787 102*2008.141644 
102*2008.141644 102*2007.443501 
102*2007.443501 102*2006.745358 
102*2006.745358 102*2006.047215 
102*2006.047215 102*2005.349072 
102*2005.349072 102*2004.650928 
102*2004.650928 102*2003.952785 
102*2003.952785 102*2003.254642 
102*2003.254642 102*2002.556499 
102*2002.556499 102*2001.858356 
102*2001.858356 102*2001.160213 
102*2001.160213 102*2000.462070 
102*2000.462070 102*1999.763927 
102*1999.763927 102*1999.065784 
102*1999.065784 102*1998.367641 
102*1998.367641 102*1997.669498 
102*1997.669498 102*1996.971355 
102*1996.971355 102*1996.273212 
102*1996.273212 102*1995.575069 
102*1995.575069 102*1994.876926 
102*1994.876926 102*1994.178783 
102*1994.178783 102*1993.480640 
102*1993.480640 102*1992.782497 
102*1992.782497 102*1992.084354 
102*1992.084354 102*1991.386211 
102*1991.386211 102*1990.688068 
102*1990.688068 102*1989.989925 
102*1989.989925 102*1989.291782 
102*1989.291782 102*1988.593638 
102*1988.593638 102*1987.895495 
102*2023.500791 102*2022.802648 
102*2022.802648 102*2022.104505 
102*2022.104505 102*2021.406362 
102*2021.406362 102*2020.708218 
102*2020.708218 102*2020.010075 
102*2020.010075 102*2019.311932 
102*2019.311932 102*2018.613789 
102*2018.613789 102*2017.915646 
102*2017.915646 102*2017.217503 
102*2017.217503 102*2016.519360 
102*2016.519360 102*2015.821217 
102*2015.821217 102*2015.123074 
102*2015.123074 102*2014.424931 
102*2014.424931 102*2013.726788 
102*2013.726788 102*2013.028645 
102*2013.028645 102*2012.330502 
102*2012.330502 102*2011.632359 
102*2011.632359 102*2010.934216 
102*2010.934216 102*2010.236073 
102*2010.236073 102*2009.537930 
102*2009.537930 102*2008.839787 
102*2008.839787 102*2008.141644 
102*2008.141644 102*2007.443501 
102*2007.443501 102*2006.745358 
102*2006.745358 102*2006.047215 
102*2006.047215 102*2005.349072 
102*2005.349072 102*2004.650928 
102*2004.650928 102*2003.952785 
102*2003.952785 102*2003.254642 
102*2003.254642 102*2002.556499 
102*2002.556499 102*2001.858356 
102*2001.858356 102*2001.160213 
102*2001.160213 102*2000.462070 
102*2000.462070 102*1999.763927 
102*1999.763927 102*1999.065784 
102*1999.065784 102*1998.367641 
102*1998.367641 102*1997.669498 
102*1997.669498 102*1996.971355 
102*1996.971355 102*1996.273212 
102*1996.273212 102*1995.575069 
102*1995.575069 102*1994.876926 
102*1994.876926 102*1994.178783 
102*1994.178783 102*1993.480640 
102*1993.480640 102*1992.782497 
102*1992.782497 102*1992.084354 
102*1992.084354 102*1991.386211 
102*1991.386211 102*1990.688068 
102*1990.688068 102*1989.989925 
102*1989.989925 102*1989.291782 
102*1989.291782 102*1988.593638 
102*1988.593638 102*1987.895495 
102*2026.000791 102*2025.302648 
102*2025.302648 102*2024.604505 
102*2024.604505 102*2023.906362 
102*2023.906362 102*2023.208218 
102*2023.208218 102*2022.510075 
102*2022.510075 102*2021.811932 
102*2021.811932 102*2021.113789 
102*2021.113789 102*2020.415646 
102*2020.415646 102*2019.717503 
102*2019.717503 102*2019.019360 
102*2019.019360 102*2018.321217 
102*2018.321217 102*2017.623074 
102*2017.623074 102*2016.924931 
102*2016.924931 102*2016.226788 
102*2016.226788 102*2015.528645 
102*2015.528645 102*2014.830502 
102*2014.830502 102*2014.132359 
102*2014.132359 102*2013.434216 
102*2013.434216 102*2012.736073 
102*2012.736073 102*2012.037930 
102*2012.037930 102*2011.339787 
102*2011.339787 102*2010.641644 
102*2010.641644 102*2009.943501 
102*2009.943501 102*2009.245358 
102*2009.245358 102*2008.547215 
102*2008.547215 102*2007.849072 
102*2007.849072 102*2007.150928 
102*2007.150928 102*2006.452785 
102*2006.452785 102*2005.754642 
102*2005.754642 102*2005.056499 
102*2005.056499 102*2004.358356 
102*2004.358356 102*2003.660213 
102*2003.660213 102*2002.962070 
102*2002.962070 102*2002.263927 
102*2002.263927 102*2001.565784 
102*2001.565784 102*2000.867641 
102*2000.867641 102*2000.169498 
102*2000.169498 102*1999.471355 
102*1999.471355 102*1998.773212 
102*1998.773212 102*1998.075069 
102*1998.075069 102*1997.376926 
102*1997.376926 102*1996.678783 
102*1996.678783 102*1995.980640 
102*1995.980640 102*1995.282497 
102*1995.282497 102*1994.584354 
102*1994.584354 102*1993.886211 
102*1993.886211 102*1993.188068 
102*1993.188068 102*1992.489925 
102*1992.489925 102*1991.791782 
102*1991.791782 102*1991.093638 
102*1991.093638 102*1990.395495 
102*2026.000791 102*2025.302648 
102*2025.302648 102*2024.604505 
102*2024.604505 102*2023.906362 
102*2023.906362 102*2023.208218 
102*2023.208218 102*2022.510075 
102*2022.510075 102*2021.811932 
102*2021.811932 102*2021.113789 
102*2021.113789 102*2020.415646 
102*2020.415646 102*2019.717503 
102*2019.717503 102*2019.019360 
102*2019.019360 102*2018.321217 
102*2018.321217 102*2017.623074 
102*2017.623074 102*2016.924931 
102*2016.924931 102*2016.226788 
102*2016.226788 102*2015.528645 
102*2015.528645 102*2014.830502 
102*2014.830502 102*2014.132359 
102*2014.132359 102*2013.434216 
102*2013.434216 102*2012.736073 
102*2012.736073 102*2012.037930 
102*2012.037930 102*2011.339787 
102*2011.339787 102*2010.641644 
102*2010.641644 102*2009.943501 
102*2009.943501 102*2009.245358 
102*2009.245358 102*2008.547215 
102*2008.547215 102*2007.849072 
102*2007.849072 102*2007.150928 
102*2007.150928 102*2006.452785 
102*2006.452785 102*2005.754642 
102*2005.754642 102*2005.056499 
102*2005.056499 102*2004.358356 
102*2004.358356 102*2003.660213 
102*2003.660213 102*2002.962070 
102*2002.962070 102*2002.263927 
102*2002.263927 102*2001.565784 
102*2001.565784 102*2000.867641 
102*2000.867641 102*2000.169498 
102*2000.169498 102*1999.471355 
102*1999.471355 102*1998.773212 
102*1998.773212 102*1998.075069 
102*1998.075069 102*1997.376926 
102*1997.376926 102*1996.678783 
102*1996.678783 102*1995.980640 
102*1995.980640 102*1995.282497 
102*1995.282497 102*1994.584354 
102*1994.584354 102*1993.886211 
102*1993.886211 102*1993.188068 
102*1993.188068 102*1992.489925 
102*1992.489925 102*1991.791782 
102*1991.791782 102*1991.093638 
102*1991.093638 102*1990.395495 
102*2028.500791 102*2027.802648 
102*2027.802648 102*2027.104505 
102*2027.104505 102*2026.406362 
102*2026.406362 102*2025.708218 
102*2025.708218 102*2025.010075 
102*2025.010075 102*2024.311932 
102*2024.311932 102*2023.613789 
102*2023.613789 102*2022.915646 
102*2022.915646 102*2022.217503 
102*2022.217503 102*2021.519360 
102*2021.519360 102*2020.821217 
102*2020.821217 102*2020.123074 
102*2020.123074 102*2019.424931 
102*2019.424931 102*2018.726788 
102*2018.726788 102*2018.028645 
102*2018.028645 102*2017.330502 
102*2017.330502 102*2016.632359 
102*2016.632359 102*2015.934216 
102*2015.934216 102*2015.236073 
102*2015.236073 102*2014.537930 
102*2014.537930 102*2013.839787 
102*2013.839787 102*2013.141644 
102*2013.141644 102*2012.443501 
102*2012.443501 102*2011.745358 
102*2011.745358 102*2011.047215 
102*2011.047215 102*2010.349072 
102*2010.349072 102*2009.650928 
102*2009.650928 102*2008.952785 
102*2008.952785 102*2008.254642 
102*2008.254642 102*2007.556499 
102*2007.556499 102*2006.858356 
102*2006.858356 102*2006.160213 
102*2006.160213 102*2005.462070 
102*2005.462070 102*2004.763927 
102*2004.763927 102*2004.065784 
102*2004.065784 102*2003.367641 
102*2003.367641 102*2002.669498 
102*2002.669498 102*2001.971355 
102*2001.971355 102*2001.273212 
102*2001.273212 102*2000.575069 
102*2000.575069 102*1999.876926 
102*1999.876926 102*1999.178783 
102*1999.178783 102*1998.480640 
102*1998.480640 102*1997.782497 
102*1997.782497 102*1997.084354 
102*1997.084354 102*1996.386211 
102*1996.386211 102*1995.688068 
102*1995.688068 102*1994.989925 
102*1994.989925 102*1994.291782 
102*1994.291782 102*1993.593638 
102*1993.593638 102*1992.895495 
102*2028.500791 102*2027.802648 
102*2027.802648 102*2027.104505 
102*2027.104505 102*2026.406362 
102*2026.406362 102*2025.708218 
102*2025.708218 102*2025.010075 
102*2025.010075 102*2024.311932 
102*2024.311932 102*2023.613789 
102*2023.613789 102*2022.915646 
102*2022.915646 102*2022.217503 
102*2022.217503 102*2021.519360 
102*2021.519360 102*2020.821217 
102*2020.821217 102*2020.123074 
102*2020.123074 102*2019.424931 
102*2019.424931 102*2018.726788 
102*2018.726788 102*2018.028645 
102*2018.028645 102*2017.330502 
102*2017.330502 102*2016.632359 
102*2016.632359 102*2015.934216 
102*2015.934216 102*2015.236073 
102*2015.236073 102*2014.537930 
102*2014.537930 102*2013.839787 
102*2013.839787 102*2013.141644 
102*2013.141644 102*2012.443501 
102*2012.443501 102*2011.745358 
102*2011.745358 102*2011.047215 
102*2011.047215 102*2010.349072 
102*2010.349072 102*2009.650928 
102*2009.650928 102*2008.952785 
102*2008.952785 102*2008.254642 
102*2008.254642 102*2007.556499 
102*2007.556499 102*2006.858356 
102*2006.858356 102*2006.160213 
102*2006.160213 102*2005.462070 
102*2005.462070 102*2004.763927 
102*2004.763927 102*2004.065784 
102*2004.065784 102*2003.367641 
102*2003.367641 102*2002.669498 
102*2002.669498 102*2001.971355 
102*2001.971355 102*2001.273212 
102*2001.273212 102*2000.575069 
102*2000.575069 102*1999.876926 
102*1999.876926 102*1999.178783 
102*1999.178783 102*1998.480640 
102*1998.480640 102*1997.782497 
102*1997.782497 102*1997.084354 
102*1997.084354 102*1996.386211 
102*1996.386211 102*1995.688068 
102*1995.688068 102*1994.989925 
102*1994.989925 102*1994.291782 
102*1994.291782 102*1993.593638 
102*1993.593638 102*1992.895495 
102*2031.000791 102*2030.302648 
102*2030.302648 102*2029.604505 
102*2029.604505 102*2028.906362 
102*2028.906362 102*2028.208218 
102*2028.208218 102*2027.510075 
102*2027.510075 102*2026.811932 
102*2026.811932 102*2026.113789 
102*2026.113789 102*2025.415646 
102*2025.415646 102*2024.717503 
102*2024.717503 102*2024.019360 
102*2024.019360 102*2023.321217 
102*2023.321217 102*2022.623074 
102*2022.623074 102*2021.924931 
102*2021.924931 102*2021.226788 
102*2021.226788 102*2020.528645 
102*2020.528645 102*2019.830502 
102*2019.830502 102*2019.132359 
102*2019.132359 102*2018.434216 
102*2018.434216 102*2017.736073 
102*2017.736073 102*2017.037930 
102*2017.037930 102*2016.339787 
102*2016.339787 102*2015.641644 
102*2015.641644 102*2014.943501 
102*2014.943501 102*2014.245358 
102*2014.245358 102*2013.547215 
102*2013.547215 102*2012.849072 
102*2012.849072 102*2012.150928 
102*2012.150928 102*2011.452785 
102*2011.452785 102*2010.754642 
102*2010.754642 102*2010.056499 
102*2010.056499 102*2009.358356 
102*2009.358356 102*2008.660213 
102*2008.660213 102*2007.962070 
102*2007.962070 102*2007.263927 
102*2007.263927 102*2006.565784 
102*2006.565784 102*2005.867641 
102*2005.867641 102*2005.169498 
102*2005.169498 102*2004.471355 
102*2004.471355 102*2003.773212 
102*2003.773212 102*2003.075069 
102*2003.075069 102*2002.376926 
102*2002.376926 102*2001.678783 
102*2001.678783 102*2000.980640 
102*2000.980640 102*2000.282497 
102*2000.282497 102*1999.584354 
102*1999.584354 102*1998.886211 
102*1998.886211 102*1998.188068 
102*1998.188068 102*1997.489925 
102*1997.489925 102*1996.791782 
102*1996.791782 102*1996.093638 
102*1996.093638 102*1995.395495 
102*2031.000791 102*2030.302648 
102*2030.302648 102*2029.604505 
102*2029.604505 102*2028.906362 
102*2028.906362 102*2028.208218 
102*2028.208218 102*2027.510075 
102*2027.510075 102*2026.811932 
102*2026.811932 102*2026.113789 
102*2026.113789 102*2025.415646 
102*2025.415646 102*2024.717503 
102*2024.717503 102*2024.019360 
102*2024.019360 102*2023.321217 
102*2023.321217 102*2022.623074 
102*2022.623074 102*2021.924931 
102*2021.924931 102*2021.226788 
102*2021.226788 102*2020.528645 
102*2020.528645 102*2019.830502 
102*2019.830502 102*2019.132359 
102*2019.132359 102*2018.434216 
102*2018.434216 102*2017.736073 
102*2017.736073 102*2017.037930 
102*2017.037930 102*2016.339787 
102*2016.339787 102*2015.641644 
102*2015.641644 102*2014.943501 
102*2014.943501 102*2014.245358 
102*2014.245358 102*2013.547215 
102*2013.547215 102*2012.849072 
102*2012.849072 102*2012.150928 
102*2012.150928 102*2011.452785 
102*2011.452785 102*2010.754642 
102*2010.754642 102*2010.056499 
102*2010.056499 102*2009.358356 
102*2009.358356 102*2008.660213 
102*2008.660213 102*2007.962070 
102*2007.962070 102*2007.263927 
102*2007.263927 102*2006.565784 
102*2006.565784 102*2005.867641 
102*2005.867641 102*2005.169498 
102*2005.169498 102*2004.471355 
102*2004.471355 102*2003.773212 
102*2003.773212 102*2003.075069 
102*2003.075069 102*2002.376926 
102*2002.376926 102*2001.678783 
102*2001.678783 102*2000.980640 
102*2000.980640 102*2000.282497 
102*2000.282497 102*1999.584354 
102*1999.584354 102*1998.886211 
102*1998.886211 102*1998.188068 
102*1998.188068 102*1997.489925 
102*1997.489925 102*1996.791782 
102*1996.791782 102*1996.093638 
102*1996.093638 102*1995.395495 
102*2033.500791 102*2032.802648 
102*2032.802648 102*2032.104505 
102*2032.104505 102*2031.406362 
102*2031.406362 102*2030.708218 
102*2030.708218 102*2030.010075 
102*2030.010075 102*2029.311932 
102*2029.311932 102*2028.613789 
102*2028.613789 102*2027.915646 
102*2027.915646 102*2027.217503 
102*2027.217503 102*2026.519360 
102*2026.519360 102*2025.821217 
102*2025.821217 102*2025.123074 
102*2025.123074 102*2024.424931 
102*2024.424931 102*2023.726788 
102*2023.726788 102*2023.028645 
102*2023.028645 102*2022.330502 
102*2022.330502 102*2021.632359 
102*2021.632359 102*2020.934216 
102*2020.934216 102*2020.236073 
102*2020.236073 102*2019.537930 
102*2019.537930 102*2018.839787 
102*2018.839787 102*2018.141644 
102*2018.141644 102*2017.443501 
102*2017.443501 102*2016.745358 
102*2016.745358 102*2016.047215 
102*2016.047215 102*2015.349072 
102*2015.349072 102*2014.650928 
102*2014.650928 102*2013.952785 
102*2013.952785 102*2013.254642 
102*2013.254642 102*2012.556499 
102*2012.556499 102*2011.858356 
102*2011.858356 102*2011.160213 
102*2011.160213 102*2010.462070 
102*2010.462070 102*2009.763927 
102*2009.763927 102*2009.065784 
102*2009.065784 102*2008.367641 
102*2008.367641 102*2007.669498 
102*2007.669498 102*2006.971355 
102*2006.971355 102*2006.273212 
102*2006.273212 102*2005.575069 
102*2005.575069 102*2004.876926 
102*2004.876926 102*2004.178783 
102*2004.178783 102*2003.480640 
102*2003.480640 102*2002.782497 
102*2002.782497 102*2002.084354 
102*2002.084354 102*2001.386211 
102*2001.386211 102*2000.688068 
102*2000.688068 102*1999.989925 
102*1999.989925 102*1999.291782 
102*1999.291782 102*1998.593638 
102*1998.593638 102*1997.895495 
102*2033.500791 102*2032.802648 
102*2032.802648 102*2032.104505 
102*2032.104505 102*2031.406362 
102*2031.406362 102*2030.708218 
102*2030.708218 102*2030.010075 
102*2030.010075 102*2029.311932 
102*2029.311932 102*2028.613789 
102*2028.613789 102*2027.915646 
102*2027.915646 102*2027.217503 
102*2027.217503 102*2026.519360 
102*2026.519360 102*2025.821217 
102*2025.821217 102*2025.123074 
102*2025.123074 102*2024.424931 
102*2024.424931 102*2023.726788 
102*2023.726788 102*2023.028645 
102*2023.028645 102*2022.330502 
102*2022.330502 102*2021.632359 
102*2021.632359 102*2020.934216 
102*2020.934216 102*2020.236073 
102*2020.236073 102*2019.537930 
102*2019.537930 102*2018.839787 
102*2018.839787 102*2018.141644 
102*2018.141644 102*2017.443501 
102*2017.443501 102*2016.745358 
102*2016.745358 102*2016.047215 
102*2016.047215 102*2015.349072 
102*2015.349072 102*2014.650928 
102*2014.650928 102*2013.952785 
102*2013.952785 102*2013.254642 
102*2013.254642 102*2012.556499 
102*2012.556499 102*2011.858356 
102*2011.858356 102*2011.160213 
102*2011.160213 102*2010.462070 
102*2010.462070 102*2009.763927 
102*2009.763927 102*2009.065784 
102*2009.065784 102*2008.367641 
102*2008.367641 102*2007.669498 
102*2007.669498 102*2006.971355 
102*2006.971355 102*2006.273212 
102*2006.273212 102*2005.575069 
102*2005.575069 102*2004.876926 
102*2004.876926 102*2004.178783 
102*2004.178783 102*2003.480640 
102*2003.480640 102*2002.782497 
102*2002.782497 102*2002.084354 
102*2002.084354 102*2001.386211 
102*2001.386211 102*2000.688068 
102*2000.688068 102*1999.989925 
102*1999.989925 102*1999.291782 
102*1999.291782 102*1998.593638 
102*1998.593638 102*1997.895495 
102*2036.000791 102*2035.302648 
102*2035.302648 102*2034.604505 
102*2034.604505 102*2033.906362 
102*2033.906362 102*2033.208218 
102*2033.208218 102*2032.510075 
102*2032.510075 102*2031.811932 
102*2031.811932 102*2031.113789 
102*2031.113789 102*2030.415646 
102*2030.415646 102*2029.717503 
102*2029.717503 102*2029.019360 
102*2029.019360 102*2028.321217 
102*2028.321217 102*2027.623074 
102*2027.623074 102*2026.924931 
102*2026.924931 102*2026.226788 
102*2026.226788 102*2025.528645 
102*2025.528645 102*2024.830502 
102*2024.830502 102*2024.132359 
102*2024.132359 102*2023.434216 
102*2023.434216 102*2022.736073 
102*2022.736073 102*2022.037930 
102*2022.037930 102*2021.339787 
102*2021.339787 102*2020.641644 
102*2020.641644 102*2019.943501 
102*2019.943501 102*2019.245358 
102*2019.245358 102*2018.547215 
102*2018.547215 102*2017.849072 
102*2017.849072 102*2017.150928 
102*2017.150928 102*2016.452785 
102*2016.452785 102*2015.754642 
102*2015.754642 102*2015.056499 
102*2015.056499 102*2014.358356 
102*2014.358356 102*2013.660213 
102*2013.660213 102*2012.962070 
102*2012.962070 102*2012.263927 
102*2012.263927 102*2011.565784 
102*2011.565784 102*2010.867641 
102*2010.867641 102*2010.169498 
102*2010.169498 102*2009.471355 
102*2009.471355 102*2008.773212 
102*2008.773212 102*2008.075069 
102*2008.075069 102*2007.376926 
102*2007.376926 102*2006.678783 
102*2006.678783 102*2005.980640 
102*2005.980640 102*2005.282497 
102*2005.282497 102*2004.584354 
102*2004.584354 102*2003.886211 
102*2003.886211 102*2003.188068 
102*2003.188068 102*2002.489925 
102*2002.489925 102*2001.791782 
102*2001.791782 102*2001.093638 
102*2001.093638 102*2000.395495 
102*2036.000791 102*2035.302648 
102*2035.302648 102*2034.604505 
102*2034.604505 102*2033.906362 
102*2033.906362 102*2033.208218 
102*2033.208218 102*2032.510075 
102*2032.510075 102*2031.811932 
102*2031.811932 102*2031.113789 
102*2031.113789 102*2030.415646 
102*2030.415646 102*2029.717503 
102*2029.717503 102*2029.019360 
102*2029.019360 102*2028.321217 
102*2028.321217 102*2027.623074 
102*2027.623074 102*2026.924931 
102*2026.924931 102*2026.226788 
102*2026.226788 102*2025.528645 
102*2025.528645 102*2024.830502 
102*2024.830502 102*2024.132359 
102*2024.132359 102*2023.434216 
102*2023.434216 102*2022.736073 
102*2022.736073 102*2022.037930 
102*2022.037930 102*2021.339787 
102*2021.339787 102*2020.641644 
102*2020.641644 102*2019.943501 
102*2019.943501 102*2019.245358 
102*2019.245358 102*2018.547215 
102*2018.547215 102*2017.849072 
102*2017.849072 102*2017.150928 
102*2017.150928 102*2016.452785 
102*2016.452785 102*2015.754642 
102*2015.754642 102*2015.056499 
102*2015.056499 102*2014.358356 
102*2014.358356 102*2013.660213 
102*2013.660213 102*2012.962070 
102*2012.962070 102*2012.263927 
102*2012.263927 102*2011.565784 
102*2011.565784 102*2010.867641 
102*2010.867641 102*2010.169498 
102*2010.169498 102*2009.471355 
102*2009.471355 102*2008.773212 
102*2008.773212 102*2008.075069 
102*2008.075069 102*2007.376926 
102*2007.376926 102*2006.678783 
102*2006.678783 102*2005.980640 
102*2005.980640 102*2005.282497 
102*2005.282497 102*2004.584354 
102*2004.584354 102*2003.886211 
102*2003.886211 102*2003.188068 
102*2003.188068 102*2002.489925 
102*2002.489925 102*2001.791782 
102*2001.791782 102*2001.093638 
102*2001.093638 102*2000.395495 
102*2038.500791 102*2037.802648 
102*2037.802648 102*2037.104505 
102*2037.104505 102*2036.406362 
102*2036.406362 102*2035.708218 
102*2035.708218 102*2035.010075 
102*2035.010075 102*2034.311932 
102*2034.311932 102*2033.613789 
102*2033.613789 102*2032.915646 
102*2032.915646 102*2032.217503 
102*2032.217503 102*2031.519360 
102*2031.519360 102*2030.821217 
102*2030.821217 102*2030.123074 
102*2030.123074 102*2029.424931 
102*2029.424931 102*2028.726788 
102*2028.726788 102*2028.028645 
102*2028.028645 102*2027.330502 
102*2027.330502 102*2026.632359 
102*2026.632359 102*2025.934216 
102*2025.934216 102*2025.236073 
102*2025.236073 102*2024.537930 
102*2024.537930 102*2023.839787 
102*2023.839787 102*2023.141644 
102*2023.141644 102*2022.443501 
102*2022.443501 102*2021.745358 
102*2021.745358 102*2021.047215 
102*2021.047215 102*2020.349072 
102*2020.349072 102*2019.650928 
102*2019.650928 102*2018.952785 
102*2018.952785 102*2018.254642 
102*2018.254642 102*2017.556499 
102*2017.556499 102*2016.858356 
102*2016.858356 102*2016.160213 
102*2016.160213 102*2015.462070 
102*2015.462070 102*2014.763927 
102*2014.763927 102*2014.065784 
102*2014.065784 102*2013.367641 
102*2013.367641 102*2012.669498 
102*2012.669498 102*2011.971355 
102*2011.971355 102*2011.273212 
102*2011.273212 102*2010.575069 
102*2010.575069 102*2009.876926 
102*2009.876926 102*2009.178783 
102*2009.178783 102*2008.480640 
102*2008.480640 102*2007.782497 
102*2007.782497 102*2007.084354 
102*2007.084354 102*2006.386211 
102*2006.386211 102*2005.688068 
102*2005.688068 102*2004.989925 
102*2004.989925 102*2004.291782 
102*2004.291782 102*2003.593638 
102*2003.593638 102*2002.895495 
102*2038.500791 102*2037.802648 
102*2037.802648 102*2037.104505 
102*2037.104505 102*2036.406362 
102*2036.406362 102*2035.708218 
102*2035.708218 102*2035.010075 
102*2035.010075 102*2034.311932 
102*2034.311932 102*2033.613789 
102*2033.613789 102*2032.915646 
102*2032.915646 102*2032.217503 
102*2032.217503 102*2031.519360 
102*2031.519360 102*2030.821217 
102*2030.821217 102*2030.123074 
102*2030.123074 102*2029.424931 
102*2029.424931 102*2028.726788 
102*2028.726788 102*2028.028645 
102*2028.028645 102*2027.330502 
102*2027.330502 102*2026.632359 
102*2026.632359 102*2025.934216 
102*2025.934216 102*2025.236073 
102*2025.236073 102*2024.537930 
102*2024.537930 102*2023.839787 
102*2023.839787 102*2023.141644 
102*2023.141644 102*2022.443501 
102*2022.443501 102*2021.745358 
102*2021.745358 102*2021.047215 
102*2021.047215 102*2020.349072 
102*2020.349072 102*2019.650928 
102*2019.650928 102*2018.952785 
102*2018.952785 102*2018.254642 
102*2018.254642 102*2017.556499 
102*2017.556499 102*2016.858356 
102*2016.858356 102*2016.160213 
102*2016.160213 102*2015.462070 
102*2015.462070 102*2014.763927 
102*2014.763927 102*2014.065784 
102*2014.065784 102*2013.367641 
102*2013.367641 102*2012.669498 
102*2012.669498 102*2011.971355 
102*2011.971355 102*2011.273212 
102*2011.273212 102*2010.575069 
102*2010.575069 102*2009.876926 
102*2009.876926 102*2009.178783 
102*2009.178783 102*2008.480640 
102*2008.480640 102*2007.782497 
102*2007.782497 102*2007.084354 
102*2007.084354 102*2006.386211 
102*2006.386211 102*2005.688068 
102*2005.688068 102*2004.989925 
102*2004.989925 102*2004.291782 
102*2004.291782 102*2003.593638 
102*2003.593638 102*2002.895495 
102*2041.000791 102*2040.302648 
102*2040.302648 102*2039.604505 
102*2039.604505 102*2038.906362 
102*2038.906362 102*2038.208218 
102*2038.208218 102*2037.510075 
102*2037.510075 102*2036.811932 
102*2036.811932 102*2036.113789 
102*2036.113789 102*2035.415646 
102*2035.415646 102*2034.717503 
102*2034.717503 102*2034.019360 
102*2034.019360 102*2033.321217 
102*2033.321217 102*2032.623074 
102*2032.623074 102*2031.924931 
102*2031.924931 102*2031.226788 
102*2031.226788 102*2030.528645 
102*2030.528645 102*2029.830502 
102*2029.830502 102*2029.132359 
102*2029.132359 102*2028.434216 
102*2028.434216 102*2027.736073 
102*2027.736073 102*2027.037930 
102*2027.037930 102*2026.339787 
102*2026.339787 102*2025.641644 
102*2025.641644 102*2024.943501 
102*2024.943501 102*2024.245358 
102*2024.245358 102*2023.547215 
102*2023.547215 102*2022.849072 
102*2022.849072 102*2022.150928 
102*2022.150928 102*2021.452785 
102*2021.452785 102*2020.754642 
102*2020.754642 102*2020.056499 
102*2020.056499 102*2019.358356 
102*2019.358356 102*2018.660213 
102*2018.660213 102*2017.962070 
102*2017.962070 102*2017.263927 
102*2017.263927 102*2016.565784 
102*2016.565784 102*2015.867641 
102*2015.867641 102*2015.169498 
102*2015.169498 102*2014.471355 
102*2014.471355 102*2013.773212 
102*2013.773212 102*2013.075069 
102*2013.075069 102*2012.376926 