ZCORN
102*2094.392390 102*2090.830413 
102*2090.830413 102*2087.268436 
102*2087.268436 102*2083.706459 
102*2083.706459 102*2080.144482 
102*2080.144482 102*2076.582505 
102*2076.582505 102*2073.020528 
102*2073.020528 102*2069.458551 
102*2069.458551 102*2065.896574 
102*2065.896574 102*2062.334597 
102*2062.334597 102*2058.772620 
102*2058.772620 102*2055.210643 
102*2055.210643 102*2051.648666 
102*2051.648666 102*2048.086689 
102*2048.086689 102*2044.524712 
102*2044.524712 102*2040.962735 
102*2040.962735 102*2037.400758 
102*2037.400758 102*2033.838781 
102*2033.838781 102*2030.276804 
102*2030.276804 102*2026.714827 
102*2026.714827 102*2023.152850 
102*2023.152850 102*2019.590873 
102*2019.590873 102*2016.028896 
102*2016.028896 102*2012.466919 
102*2012.466919 102*2008.904942 
102*2008.904942 102*2005.342965 
102*2005.342965 102*2001.780988 
102*2001.780988 102*1998.219012 
102*1998.219012 102*1994.657035 
102*1994.657035 102*1991.095058 
102*1991.095058 102*1987.533081 
102*1987.533081 102*1983.971104 
102*1983.971104 102*1980.409127 
102*1980.409127 102*1976.847150 
102*1976.847150 102*1973.285173 
102*1973.285173 102*1969.723196 
102*1969.723196 102*1966.161219 
102*1966.161219 102*1962.599242 
102*1962.599242 102*1959.037265 
102*1959.037265 102*1955.475288 
102*1955.475288 102*1951.913311 
102*1951.913311 102*1948.351334 
102*1948.351334 102*1944.789357 
102*1944.789357 102*1941.227380 
102*1941.227380 102*1937.665403 
102*1937.665403 102*1934.103426 
102*1934.103426 102*1930.541449 
102*1930.541449 102*1926.979472 
102*1926.979472 102*1923.417495 
102*1923.417495 102*1919.855518 
102*1919.855518 102*1916.293541 
102*1916.293541 102*1912.731564 
102*2096.892390 102*2093.330413 
102*2093.330413 102*2089.768436 
102*2089.768436 102*2086.206459 
102*2086.206459 102*2082.644482 
102*2082.644482 102*2079.082505 
102*2079.082505 102*2075.520528 
102*2075.520528 102*2071.958551 
102*2071.958551 102*2068.396574 
102*2068.396574 102*2064.834597 
102*2064.834597 102*2061.272620 
102*2061.272620 102*2057.710643 
102*2057.710643 102*2054.148666 
102*2054.148666 102*2050.586689 
102*2050.586689 102*2047.024712 
102*2047.024712 102*2043.462735 
102*2043.462735 102*2039.900758 
102*2039.900758 102*2036.338781 
102*2036.338781 102*2032.776804 
102*2032.776804 102*2029.214827 
102*2029.214827 102*2025.652850 
102*2025.652850 102*2022.090873 
102*2022.090873 102*2018.528896 
102*2018.528896 102*2014.966919 
102*2014.966919 102*2011.404942 
102*2011.404942 102*2007.842965 
102*2007.842965 102*2004.280988 
102*2004.280988 102*2000.719012 
102*2000.719012 102*1997.157035 
102*1997.157035 102*1993.595058 
102*1993.595058 102*1990.033081 
102*1990.033081 102*1986.471104 
102*1986.471104 102*1982.909127 
102*1982.909127 102*1979.347150 
102*1979.347150 102*1975.785173 
102*1975.785173 102*1972.223196 
102*1972.223196 102*1968.661219 
102*1968.661219 102*1965.099242 
102*1965.099242 102*1961.537265 
102*1961.537265 102*1957.975288 
102*1957.975288 102*1954.413311 
102*1954.413311 102*1950.851334 
102*1950.851334 102*1947.289357 
102*1947.289357 102*1943.727380 
102*1943.727380 102*1940.165403 
102*1940.165403 102*1936.603426 
102*1936.603426 102*1933.041449 
102*1933.041449 102*1929.479472 
102*1929.479472 102*1925.917495 
102*1925.917495 102*1922.355518 
102*1922.355518 102*1918.793541 
102*1918.793541 102*1915.231564 
102*2096.892390 102*2093.330413 
102*2093.330413 102*2089.768436 
102*2089.768436 102*2086.206459 
102*2086.206459 102*2082.644482 
102*2082.644482 102*2079.082505 
102*2079.082505 102*2075.520528 
102*2075.520528 102*2071.958551 
102*2071.958551 102*2068.396574 
102*2068.396574 102*2064.834597 
102*2064.834597 102*2061.272620 
102*2061.272620 102*2057.710643 
102*2057.710643 102*2054.148666 
102*2054.148666 102*2050.586689 
102*2050.586689 102*2047.024712 
102*2047.024712 102*2043.462735 
102*2043.462735 102*2039.900758 
102*2039.900758 102*2036.338781 
102*2036.338781 102*2032.776804 
102*2032.776804 102*2029.214827 
102*2029.214827 102*2025.652850 
102*2025.652850 102*2022.090873 
102*2022.090873 102*2018.528896 
102*2018.528896 102*2014.966919 
102*2014.966919 102*2011.404942 
102*2011.404942 102*2007.842965 
102*2007.842965 102*2004.280988 
102*2004.280988 102*2000.719012 
102*2000.719012 102*1997.157035 
102*1997.157035 102*1993.595058 
102*1993.595058 102*1990.033081 
102*1990.033081 102*1986.471104 
102*1986.471104 102*1982.909127 
102*1982.909127 102*1979.347150 
102*1979.347150 102*1975.785173 
102*1975.785173 102*1972.223196 
102*1972.223196 102*1968.661219 
102*1968.661219 102*1965.099242 
102*1965.099242 102*1961.537265 
102*1961.537265 102*1957.975288 
102*1957.975288 102*1954.413311 
102*1954.413311 102*1950.851334 
102*1950.851334 102*1947.289357 
102*1947.289357 102*1943.727380 
102*1943.727380 102*1940.165403 
102*1940.165403 102*1936.603426 
102*1936.603426 102*1933.041449 
102*1933.041449 102*1929.479472 
102*1929.479472 102*1925.917495 
102*1925.917495 102*1922.355518 
102*1922.355518 102*1918.793541 
102*1918.793541 102*1915.231564 
102*2099.392390 102*2095.830413 
102*2095.830413 102*2092.268436 
102*2092.268436 102*2088.706459 
102*2088.706459 102*2085.144482 
102*2085.144482 102*2081.582505 
102*2081.582505 102*2078.020528 
102*2078.020528 102*2074.458551 
102*2074.458551 102*2070.896574 
102*2070.896574 102*2067.334597 
102*2067.334597 102*2063.772620 
102*2063.772620 102*2060.210643 
102*2060.210643 102*2056.648666 
102*2056.648666 102*2053.086689 
102*2053.086689 102*2049.524712 
102*2049.524712 102*2045.962735 
102*2045.962735 102*2042.400758 
102*2042.400758 102*2038.838781 
102*2038.838781 102*2035.276804 
102*2035.276804 102*2031.714827 
102*2031.714827 102*2028.152850 
102*2028.152850 102*2024.590873 
102*2024.590873 102*2021.028896 
102*2021.028896 102*2017.466919 
102*2017.466919 102*2013.904942 
102*2013.904942 102*2010.342965 
102*2010.342965 102*2006.780988 
102*2006.780988 102*2003.219012 
102*2003.219012 102*1999.657035 
102*1999.657035 102*1996.095058 
102*1996.095058 102*1992.533081 
102*1992.533081 102*1988.971104 
102*1988.971104 102*1985.409127 
102*1985.409127 102*1981.847150 
102*1981.847150 102*1978.285173 
102*1978.285173 102*1974.723196 
102*1974.723196 102*1971.161219 
102*1971.161219 102*1967.599242 
102*1967.599242 102*1964.037265 
102*1964.037265 102*1960.475288 
102*1960.475288 102*1956.913311 
102*1956.913311 102*1953.351334 
102*1953.351334 102*1949.789357 
102*1949.789357 102*1946.227380 
102*1946.227380 102*1942.665403 
102*1942.665403 102*1939.103426 
102*1939.103426 102*1935.541449 
102*1935.541449 102*1931.979472 
102*1931.979472 102*1928.417495 
102*1928.417495 102*1924.855518 
102*1924.855518 102*1921.293541 
102*1921.293541 102*1917.731564 
102*2099.392390 102*2095.830413 
102*2095.830413 102*2092.268436 
102*2092.268436 102*2088.706459 
102*2088.706459 102*2085.144482 
102*2085.144482 102*2081.582505 
102*2081.582505 102*2078.020528 
102*2078.020528 102*2074.458551 
102*2074.458551 102*2070.896574 
102*2070.896574 102*2067.334597 
102*2067.334597 102*2063.772620 
102*2063.772620 102*2060.210643 
102*2060.210643 102*2056.648666 
102*2056.648666 102*2053.086689 
102*2053.086689 102*2049.524712 
102*2049.524712 102*2045.962735 
102*2045.962735 102*2042.400758 
102*2042.400758 102*2038.838781 
102*2038.838781 102*2035.276804 
102*2035.276804 102*2031.714827 
102*2031.714827 102*2028.152850 
102*2028.152850 102*2024.590873 
102*2024.590873 102*2021.028896 
102*2021.028896 102*2017.466919 
102*2017.466919 102*2013.904942 
102*2013.904942 102*2010.342965 
102*2010.342965 102*2006.780988 
102*2006.780988 102*2003.219012 
102*2003.219012 102*1999.657035 
102*1999.657035 102*1996.095058 
102*1996.095058 102*1992.533081 
102*1992.533081 102*1988.971104 
102*1988.971104 102*1985.409127 
102*1985.409127 102*1981.847150 
102*1981.847150 102*1978.285173 
102*1978.285173 102*1974.723196 
102*1974.723196 102*1971.161219 
102*1971.161219 102*1967.599242 
102*1967.599242 102*1964.037265 
102*1964.037265 102*1960.475288 
102*1960.475288 102*1956.913311 
102*1956.913311 102*1953.351334 
102*1953.351334 102*1949.789357 
102*1949.789357 102*1946.227380 
102*1946.227380 102*1942.665403 
102*1942.665403 102*1939.103426 
102*1939.103426 102*1935.541449 
102*1935.541449 102*1931.979472 
102*1931.979472 102*1928.417495 
102*1928.417495 102*1924.855518 
102*1924.855518 102*1921.293541 
102*1921.293541 102*1917.731564 
102*2101.892390 102*2098.330413 
102*2098.330413 102*2094.768436 
102*2094.768436 102*2091.206459 
102*2091.206459 102*2087.644482 
102*2087.644482 102*2084.082505 
102*2084.082505 102*2080.520528 
102*2080.520528 102*2076.958551 
102*2076.958551 102*2073.396574 
102*2073.396574 102*2069.834597 
102*2069.834597 102*2066.272620 
102*2066.272620 102*2062.710643 
102*2062.710643 102*2059.148666 
102*2059.148666 102*2055.586689 
102*2055.586689 102*2052.024712 
102*2052.024712 102*2048.462735 
102*2048.462735 102*2044.900758 
102*2044.900758 102*2041.338781 
102*2041.338781 102*2037.776804 
102*2037.776804 102*2034.214827 
102*2034.214827 102*2030.652850 
102*2030.652850 102*2027.090873 
102*2027.090873 102*2023.528896 
102*2023.528896 102*2019.966919 
102*2019.966919 102*2016.404942 
102*2016.404942 102*2012.842965 
102*2012.842965 102*2009.280988 
102*2009.280988 102*2005.719012 
102*2005.719012 102*2002.157035 
102*2002.157035 102*1998.595058 
102*1998.595058 102*1995.033081 
102*1995.033081 102*1991.471104 
102*1991.471104 102*1987.909127 
102*1987.909127 102*1984.347150 
102*1984.347150 102*1980.785173 
102*1980.785173 102*1977.223196 
102*1977.223196 102*1973.661219 
102*1973.661219 102*1970.099242 
102*1970.099242 102*1966.537265 
102*1966.537265 102*1962.975288 
102*1962.975288 102*1959.413311 
102*1959.413311 102*1955.851334 
102*1955.851334 102*1952.289357 
102*1952.289357 102*1948.727380 
102*1948.727380 102*1945.165403 
102*1945.165403 102*1941.603426 
102*1941.603426 102*1938.041449 
102*1938.041449 102*1934.479472 
102*1934.479472 102*1930.917495 
102*1930.917495 102*1927.355518 
102*1927.355518 102*1923.793541 
102*1923.793541 102*1920.231564 
102*2101.892390 102*2098.330413 
102*2098.330413 102*2094.768436 
102*2094.768436 102*2091.206459 
102*2091.206459 102*2087.644482 
102*2087.644482 102*2084.082505 
102*2084.082505 102*2080.520528 
102*2080.520528 102*2076.958551 
102*2076.958551 102*2073.396574 
102*2073.396574 102*2069.834597 
102*2069.834597 102*2066.272620 
102*2066.272620 102*2062.710643 
102*2062.710643 102*2059.148666 
102*2059.148666 102*2055.586689 
102*2055.586689 102*2052.024712 
102*2052.024712 102*2048.462735 
102*2048.462735 102*2044.900758 
102*2044.900758 102*2041.338781 
102*2041.338781 102*2037.776804 
102*2037.776804 102*2034.214827 
102*2034.214827 102*2030.652850 
102*2030.652850 102*2027.090873 
102*2027.090873 102*2023.528896 
102*2023.528896 102*2019.966919 
102*2019.966919 102*2016.404942 
102*2016.404942 102*2012.842965 
102*2012.842965 102*2009.280988 
102*2009.280988 102*2005.719012 
102*2005.719012 102*2002.157035 
102*2002.157035 102*1998.595058 
102*1998.595058 102*1995.033081 
102*1995.033081 102*1991.471104 
102*1991.471104 102*1987.909127 
102*1987.909127 102*1984.347150 
102*1984.347150 102*1980.785173 
102*1980.785173 102*1977.223196 
102*1977.223196 102*1973.661219 
102*1973.661219 102*1970.099242 
102*1970.099242 102*1966.537265 
102*1966.537265 102*1962.975288 
102*1962.975288 102*1959.413311 
102*1959.413311 102*1955.851334 
102*1955.851334 102*1952.289357 
102*1952.289357 102*1948.727380 
102*1948.727380 102*1945.165403 
102*1945.165403 102*1941.603426 
102*1941.603426 102*1938.041449 
102*1938.041449 102*1934.479472 
102*1934.479472 102*1930.917495 
102*1930.917495 102*1927.355518 
102*1927.355518 102*1923.793541 
102*1923.793541 102*1920.231564 
102*2104.392390 102*2100.830413 
102*2100.830413 102*2097.268436 
102*2097.268436 102*2093.706459 
102*2093.706459 102*2090.144482 
102*2090.144482 102*2086.582505 
102*2086.582505 102*2083.020528 
102*2083.020528 102*2079.458551 
102*2079.458551 102*2075.896574 
102*2075.896574 102*2072.334597 
102*2072.334597 102*2068.772620 
102*2068.772620 102*2065.210643 
102*2065.210643 102*2061.648666 
102*2061.648666 102*2058.086689 
102*2058.086689 102*2054.524712 
102*2054.524712 102*2050.962735 
102*2050.962735 102*2047.400758 
102*2047.400758 102*2043.838781 
102*2043.838781 102*2040.276804 
102*2040.276804 102*2036.714827 
102*2036.714827 102*2033.152850 
102*2033.152850 102*2029.590873 
102*2029.590873 102*2026.028896 
102*2026.028896 102*2022.466919 
102*2022.466919 102*2018.904942 
102*2018.904942 102*2015.342965 
102*2015.342965 102*2011.780988 
102*2011.780988 102*2008.219012 
102*2008.219012 102*2004.657035 
102*2004.657035 102*2001.095058 
102*2001.095058 102*1997.533081 
102*1997.533081 102*1993.971104 
102*1993.971104 102*1990.409127 
102*1990.409127 102*1986.847150 
102*1986.847150 102*1983.285173 
102*1983.285173 102*1979.723196 
102*1979.723196 102*1976.161219 
102*1976.161219 102*1972.599242 
102*1972.599242 102*1969.037265 
102*1969.037265 102*1965.475288 
102*1965.475288 102*1961.913311 
102*1961.913311 102*1958.351334 
102*1958.351334 102*1954.789357 
102*1954.789357 102*1951.227380 
102*1951.227380 102*1947.665403 
102*1947.665403 102*1944.103426 
102*1944.103426 102*1940.541449 
102*1940.541449 102*1936.979472 
102*1936.979472 102*1933.417495 
102*1933.417495 102*1929.855518 
102*1929.855518 102*1926.293541 
102*1926.293541 102*1922.731564 
102*2104.392390 102*2100.830413 
102*2100.830413 102*2097.268436 
102*2097.268436 102*2093.706459 
102*2093.706459 102*2090.144482 
102*2090.144482 102*2086.582505 
102*2086.582505 102*2083.020528 
102*2083.020528 102*2079.458551 
102*2079.458551 102*2075.896574 
102*2075.896574 102*2072.334597 
102*2072.334597 102*2068.772620 
102*2068.772620 102*2065.210643 
102*2065.210643 102*2061.648666 
102*2061.648666 102*2058.086689 
102*2058.086689 102*2054.524712 
102*2054.524712 102*2050.962735 
102*2050.962735 102*2047.400758 
102*2047.400758 102*2043.838781 
102*2043.838781 102*2040.276804 
102*2040.276804 102*2036.714827 
102*2036.714827 102*2033.152850 
102*2033.152850 102*2029.590873 
102*2029.590873 102*2026.028896 
102*2026.028896 102*2022.466919 
102*2022.466919 102*2018.904942 
102*2018.904942 102*2015.342965 
102*2015.342965 102*2011.780988 
102*2011.780988 102*2008.219012 
102*2008.219012 102*2004.657035 
102*2004.657035 102*2001.095058 
102*2001.095058 102*1997.533081 
102*1997.533081 102*1993.971104 
102*1993.971104 102*1990.409127 
102*1990.409127 102*1986.847150 
102*1986.847150 102*1983.285173 
102*1983.285173 102*1979.723196 
102*1979.723196 102*1976.161219 
102*1976.161219 102*1972.599242 
102*1972.599242 102*1969.037265 
102*1969.037265 102*1965.475288 
102*1965.475288 102*1961.913311 
102*1961.913311 102*1958.351334 
102*1958.351334 102*1954.789357 
102*1954.789357 102*1951.227380 
102*1951.227380 102*1947.665403 
102*1947.665403 102*1944.103426 
102*1944.103426 102*1940.541449 
102*1940.541449 102*1936.979472 
102*1936.979472 102*1933.417495 
102*1933.417495 102*1929.855518 
102*1929.855518 102*1926.293541 
102*1926.293541 102*1922.731564 
102*2106.892390 102*2103.330413 
102*2103.330413 102*2099.768436 
102*2099.768436 102*2096.206459 
102*2096.206459 102*2092.644482 
102*2092.644482 102*2089.082505 
102*2089.082505 102*2085.520528 
102*2085.520528 102*2081.958551 
102*2081.958551 102*2078.396574 
102*2078.396574 102*2074.834597 
102*2074.834597 102*2071.272620 
102*2071.272620 102*2067.710643 
102*2067.710643 102*2064.148666 
102*2064.148666 102*2060.586689 
102*2060.586689 102*2057.024712 
102*2057.024712 102*2053.462735 
102*2053.462735 102*2049.900758 
102*2049.900758 102*2046.338781 
102*2046.338781 102*2042.776804 
102*2042.776804 102*2039.214827 
102*2039.214827 102*2035.652850 
102*2035.652850 102*2032.090873 
102*2032.090873 102*2028.528896 
102*2028.528896 102*2024.966919 
102*2024.966919 102*2021.404942 
102*2021.404942 102*2017.842965 
102*2017.842965 102*2014.280988 
102*2014.280988 102*2010.719012 
102*2010.719012 102*2007.157035 
102*2007.157035 102*2003.595058 
102*2003.595058 102*2000.033081 
102*2000.033081 102*1996.471104 
102*1996.471104 102*1992.909127 
102*1992.909127 102*1989.347150 
102*1989.347150 102*1985.785173 
102*1985.785173 102*1982.223196 
102*1982.223196 102*1978.661219 
102*1978.661219 102*1975.099242 
102*1975.099242 102*1971.537265 
102*1971.537265 102*1967.975288 
102*1967.975288 102*1964.413311 
102*1964.413311 102*1960.851334 
102*1960.851334 102*1957.289357 
102*1957.289357 102*1953.727380 
102*1953.727380 102*1950.165403 
102*1950.165403 102*1946.603426 
102*1946.603426 102*1943.041449 
102*1943.041449 102*1939.479472 
102*1939.479472 102*1935.917495 
102*1935.917495 102*1932.355518 
102*1932.355518 102*1928.793541 
102*1928.793541 102*1925.231564 
102*2106.892390 102*2103.330413 
102*2103.330413 102*2099.768436 
102*2099.768436 102*2096.206459 
102*2096.206459 102*2092.644482 
102*2092.644482 102*2089.082505 
102*2089.082505 102*2085.520528 
102*2085.520528 102*2081.958551 
102*2081.958551 102*2078.396574 
102*2078.396574 102*2074.834597 
102*2074.834597 102*2071.272620 
102*2071.272620 102*2067.710643 
102*2067.710643 102*2064.148666 
102*2064.148666 102*2060.586689 
102*2060.586689 102*2057.024712 
102*2057.024712 102*2053.462735 
102*2053.462735 102*2049.900758 
102*2049.900758 102*2046.338781 
102*2046.338781 102*2042.776804 
102*2042.776804 102*2039.214827 
102*2039.214827 102*2035.652850 
102*2035.652850 102*2032.090873 
102*2032.090873 102*2028.528896 
102*2028.528896 102*2024.966919 
102*2024.966919 102*2021.404942 
102*2021.404942 102*2017.842965 
102*2017.842965 102*2014.280988 
102*2014.280988 102*2010.719012 
102*2010.719012 102*2007.157035 
102*2007.157035 102*2003.595058 
102*2003.595058 102*2000.033081 
102*2000.033081 102*1996.471104 
102*1996.471104 102*1992.909127 
102*1992.909127 102*1989.347150 
102*1989.347150 102*1985.785173 
102*1985.785173 102*1982.223196 
102*1982.223196 102*1978.661219 
102*1978.661219 102*1975.099242 
102*1975.099242 102*1971.537265 
102*1971.537265 102*1967.975288 
102*1967.975288 102*1964.413311 
102*1964.413311 102*1960.851334 
102*1960.851334 102*1957.289357 
102*1957.289357 102*1953.727380 
102*1953.727380 102*1950.165403 
102*1950.165403 102*1946.603426 
102*1946.603426 102*1943.041449 
102*1943.041449 102*1939.479472 
102*1939.479472 102*1935.917495 
102*1935.917495 102*1932.355518 
102*1932.355518 102*1928.793541 
102*1928.793541 102*1925.231564 
102*2109.392390 102*2105.830413 
102*2105.830413 102*2102.268436 
102*2102.268436 102*2098.706459 
102*2098.706459 102*2095.144482 
102*2095.144482 102*2091.582505 
102*2091.582505 102*2088.020528 
102*2088.020528 102*2084.458551 
102*2084.458551 102*2080.896574 
102*2080.896574 102*2077.334597 
102*2077.334597 102*2073.772620 
102*2073.772620 102*2070.210643 
102*2070.210643 102*2066.648666 
102*2066.648666 102*2063.086689 
102*2063.086689 102*2059.524712 
102*2059.524712 102*2055.962735 
102*2055.962735 102*2052.400758 
102*2052.400758 102*2048.838781 
102*2048.838781 102*2045.276804 
102*2045.276804 102*2041.714827 
102*2041.714827 102*2038.152850 
102*2038.152850 102*2034.590873 
102*2034.590873 102*2031.028896 
102*2031.028896 102*2027.466919 
102*2027.466919 102*2023.904942 
102*2023.904942 102*2020.342965 
102*2020.342965 102*2016.780988 
102*2016.780988 102*2013.219012 
102*2013.219012 102*2009.657035 
102*2009.657035 102*2006.095058 
102*2006.095058 102*2002.533081 
102*2002.533081 102*1998.971104 
102*1998.971104 102*1995.409127 
102*1995.409127 102*1991.847150 
102*1991.847150 102*1988.285173 
102*1988.285173 102*1984.723196 
102*1984.723196 102*1981.161219 
102*1981.161219 102*1977.599242 
102*1977.599242 102*1974.037265 
102*1974.037265 102*1970.475288 
102*1970.475288 102*1966.913311 
102*1966.913311 102*1963.351334 
102*1963.351334 102*1959.789357 
102*1959.789357 102*1956.227380 
102*1956.227380 102*1952.665403 
102*1952.665403 102*1949.103426 
102*1949.103426 102*1945.541449 
102*1945.541449 102*1941.979472 
102*1941.979472 102*1938.417495 
102*1938.417495 102*1934.855518 
102*1934.855518 102*1931.293541 
102*1931.293541 102*1927.731564 
102*2109.392390 102*2105.830413 
102*2105.830413 102*2102.268436 
102*2102.268436 102*2098.706459 
102*2098.706459 102*2095.144482 
102*2095.144482 102*2091.582505 
102*2091.582505 102*2088.020528 
102*2088.020528 102*2084.458551 
102*2084.458551 102*2080.896574 
102*2080.896574 102*2077.334597 
102*2077.334597 102*2073.772620 
102*2073.772620 102*2070.210643 
102*2070.210643 102*2066.648666 
102*2066.648666 102*2063.086689 
102*2063.086689 102*2059.524712 
102*2059.524712 102*2055.962735 
102*2055.962735 102*2052.400758 
102*2052.400758 102*2048.838781 
102*2048.838781 102*2045.276804 
102*2045.276804 102*2041.714827 
102*2041.714827 102*2038.152850 
102*2038.152850 102*2034.590873 
102*2034.590873 102*2031.028896 
102*2031.028896 102*2027.466919 
102*2027.466919 102*2023.904942 
102*2023.904942 102*2020.342965 
102*2020.342965 102*2016.780988 
102*2016.780988 102*2013.219012 
102*2013.219012 102*2009.657035 
102*2009.657035 102*2006.095058 
102*2006.095058 102*2002.533081 
102*2002.533081 102*1998.971104 
102*1998.971104 102*1995.409127 
102*1995.409127 102*1991.847150 
102*1991.847150 102*1988.285173 
102*1988.285173 102*1984.723196 
102*1984.723196 102*1981.161219 
102*1981.161219 102*1977.599242 
102*1977.599242 102*1974.037265 
102*1974.037265 102*1970.475288 
102*1970.475288 102*1966.913311 
102*1966.913311 102*1963.351334 
102*1963.351334 102*1959.789357 
102*1959.789357 102*1956.227380 
102*1956.227380 102*1952.665403 
102*1952.665403 102*1949.103426 
102*1949.103426 102*1945.541449 
102*1945.541449 102*1941.979472 
102*1941.979472 102*1938.417495 
102*1938.417495 102*1934.855518 
102*1934.855518 102*1931.293541 
102*1931.293541 102*1927.731564 
102*2111.892390 102*2108.330413 
102*2108.330413 102*2104.768436 
102*2104.768436 102*2101.206459 
102*2101.206459 102*2097.644482 
102*2097.644482 102*2094.082505 
102*2094.082505 102*2090.520528 
102*2090.520528 102*2086.958551 
102*2086.958551 102*2083.396574 
102*2083.396574 102*2079.834597 
102*2079.834597 102*2076.272620 
102*2076.272620 102*2072.710643 
102*2072.710643 102*2069.148666 
102*2069.148666 102*2065.586689 
102*2065.586689 102*2062.024712 
102*2062.024712 102*2058.462735 
102*2058.462735 102*2054.900758 
102*2054.900758 102*2051.338781 
102*2051.338781 102*2047.776804 
102*2047.776804 102*2044.214827 
102*2044.214827 102*2040.652850 
102*2040.652850 102*2037.090873 
102*2037.090873 102*2033.528896 
102*2033.528896 102*2029.966919 
102*2029.966919 102*2026.404942 
102*2026.404942 102*2022.842965 
102*2022.842965 102*2019.280988 
102*2019.280988 102*2015.719012 
102*2015.719012 102*2012.157035 
102*2012.157035 102*2008.595058 
102*2008.595058 102*2005.033081 
102*2005.033081 102*2001.471104 
102*2001.471104 102*1997.909127 
102*1997.909127 102*1994.347150 
102*1994.347150 102*1990.785173 
102*1990.785173 102*1987.223196 
102*1987.223196 102*1983.661219 
102*1983.661219 102*1980.099242 
102*1980.099242 102*1976.537265 
102*1976.537265 102*1972.975288 
102*1972.975288 102*1969.413311 
102*1969.413311 102*1965.851334 
102*1965.851334 102*1962.289357 
102*1962.289357 102*1958.727380 
102*1958.727380 102*1955.165403 
102*1955.165403 102*1951.603426 
102*1951.603426 102*1948.041449 
102*1948.041449 102*1944.479472 
102*1944.479472 102*1940.917495 
102*1940.917495 102*1937.355518 
102*1937.355518 102*1933.793541 
102*1933.793541 102*1930.231564 
102*2111.892390 102*2108.330413 
102*2108.330413 102*2104.768436 
102*2104.768436 102*2101.206459 
102*2101.206459 102*2097.644482 
102*2097.644482 102*2094.082505 
102*2094.082505 102*2090.520528 
102*2090.520528 102*2086.958551 
102*2086.958551 102*2083.396574 
102*2083.396574 102*2079.834597 
102*2079.834597 102*2076.272620 
102*2076.272620 102*2072.710643 
102*2072.710643 102*2069.148666 
102*2069.148666 102*2065.586689 
102*2065.586689 102*2062.024712 
102*2062.024712 102*2058.462735 
102*2058.462735 102*2054.900758 
102*2054.900758 102*2051.338781 
102*2051.338781 102*2047.776804 
102*2047.776804 102*2044.214827 
102*2044.214827 102*2040.652850 
102*2040.652850 102*2037.090873 
102*2037.090873 102*2033.528896 
102*2033.528896 102*2029.966919 
102*2029.966919 102*2026.404942 
102*2026.404942 102*2022.842965 
102*2022.842965 102*2019.280988 
102*2019.280988 102*2015.719012 
102*2015.719012 102*2012.157035 
102*2012.157035 102*2008.595058 
102*2008.595058 102*2005.033081 
102*2005.033081 102*2001.471104 
102*2001.471104 102*1997.909127 
102*1997.909127 102*1994.347150 
102*1994.347150 102*1990.785173 
102*1990.785173 102*1987.223196 
102*1987.223196 102*1983.661219 
102*1983.661219 102*1980.099242 
102*1980.099242 102*1976.537265 
102*1976.537265 102*1972.975288 
102*1972.975288 102*1969.413311 
102*1969.413311 102*1965.851334 
102*1965.851334 102*1962.289357 
102*1962.289357 102*1958.727380 
102*1958.727380 102*1955.165403 
102*1955.165403 102*1951.603426 
102*1951.603426 102*1948.041449 
102*1948.041449 102*1944.479472 
102*1944.479472 102*1940.917495 
102*1940.917495 102*1937.355518 
102*1937.355518 102*1933.793541 
102*1933.793541 102*1930.231564 
102*2114.392390 102*2110.830413 
102*2110.830413 102*2107.268436 
102*2107.268436 102*2103.706459 
102*2103.706459 102*2100.144482 
102*2100.144482 102*2096.582505 
102*2096.582505 102*2093.020528 
102*2093.020528 102*2089.458551 
102*2089.458551 102*2085.896574 
102*2085.896574 102*2082.334597 
102*2082.334597 102*2078.772620 
102*2078.772620 102*2075.210643 
102*2075.210643 102*2071.648666 
102*2071.648666 102*2068.086689 
102*2068.086689 102*2064.524712 
102*2064.524712 102*2060.962735 
102*2060.962735 102*2057.400758 
102*2057.400758 102*2053.838781 
102*2053.838781 102*2050.276804 
102*2050.276804 102*2046.714827 
102*2046.714827 102*2043.152850 
102*2043.152850 102*2039.590873 
102*2039.590873 102*2036.028896 
102*2036.028896 102*2032.466919 
102*2032.466919 102*2028.904942 
102*2028.904942 102*2025.342965 
102*2025.342965 102*2021.780988 
102*2021.780988 102*2018.219012 
102*2018.219012 102*2014.657035 
102*2014.657035 102*2011.095058 
102*2011.095058 102*2007.533081 
102*2007.533081 102*2003.971104 
102*2003.971104 102*2000.409127 
102*2000.409127 102*1996.847150 
102*1996.847150 102*1993.285173 
102*1993.285173 102*1989.723196 
102*1989.723196 102*1986.161219 
102*1986.161219 102*1982.599242 
102*1982.599242 102*1979.037265 
102*1979.037265 102*1975.475288 
102*1975.475288 102*1971.913311 
102*1971.913311 102*1968.351334 
102*1968.351334 102*1964.789357 
102*1964.789357 102*1961.227380 
102*1961.227380 102*1957.665403 
102*1957.665403 102*1954.103426 
102*1954.103426 102*1950.541449 
102*1950.541449 102*1946.979472 
102*1946.979472 102*1943.417495 
102*1943.417495 102*1939.855518 
102*1939.855518 102*1936.293541 
102*1936.293541 102*1932.731564 
102*2114.392390 102*2110.830413 
102*2110.830413 102*2107.268436 
102*2107.268436 102*2103.706459 
102*2103.706459 102*2100.144482 
102*2100.144482 102*2096.582505 
102*2096.582505 102*2093.020528 
102*2093.020528 102*2089.458551 
102*2089.458551 102*2085.896574 
102*2085.896574 102*2082.334597 
102*2082.334597 102*2078.772620 
102*2078.772620 102*2075.210643 
102*2075.210643 102*2071.648666 
102*2071.648666 102*2068.086689 
102*2068.086689 102*2064.524712 
102*2064.524712 102*2060.962735 
102*2060.962735 102*2057.400758 
102*2057.400758 102*2053.838781 
102*2053.838781 102*2050.276804 
102*2050.276804 102*2046.714827 
102*2046.714827 102*2043.152850 
102*2043.152850 102*2039.590873 
102*2039.590873 102*2036.028896 
102*2036.028896 102*2032.466919 
102*2032.466919 102*2028.904942 
102*2028.904942 102*2025.342965 
102*2025.342965 102*2021.780988 
102*2021.780988 102*2018.219012 
102*2018.219012 102*2014.657035 
102*2014.657035 102*2011.095058 
102*2011.095058 102*2007.533081 
102*2007.533081 102*2003.971104 
102*2003.971104 102*2000.409127 
102*2000.409127 102*1996.847150 
102*1996.847150 102*1993.285173 
102*1993.285173 102*1989.723196 
102*1989.723196 102*1986.161219 
102*1986.161219 102*1982.599242 
102*1982.599242 102*1979.037265 
102*1979.037265 102*1975.475288 
102*1975.475288 102*1971.913311 
102*1971.913311 102*1968.351334 
102*1968.351334 102*1964.789357 
102*1964.789357 102*1961.227380 
102*1961.227380 102*1957.665403 
102*1957.665403 102*1954.103426 
102*1954.103426 102*1950.541449 
102*1950.541449 102*1946.979472 
102*1946.979472 102*1943.417495 
102*1943.417495 102*1939.855518 
102*1939.855518 102*1936.293541 
102*1936.293541 102*1932.731564 
102*2116.892390 102*2113.330413 
102*2113.330413 102*2109.768436 
102*2109.768436 102*2106.206459 
102*2106.206459 102*2102.644482 
102*2102.644482 102*2099.082505 
102*2099.082505 102*2095.520528 
102*2095.520528 102*2091.958551 
102*2091.958551 102*2088.396574 
102*2088.396574 102*2084.834597 
102*2084.834597 102*2081.272620 
102*2081.272620 102*2077.710643 
102*2077.710643 102*2074.148666 
102*2074.148666 102*2070.586689 
102*2070.586689 102*2067.024712 
102*2067.024712 102*2063.462735 
102*2063.462735 102*2059.900758 
102*2059.900758 102*2056.338781 
102*2056.338781 102*2052.776804 
102*2052.776804 102*2049.214827 
102*2049.214827 102*2045.652850 
102*2045.652850 102*2042.090873 
102*2042.090873 102*2038.528896 
102*2038.528896 102*2034.966919 
102*2034.966919 102*2031.404942 
102*2031.404942 102*2027.842965 
102*2027.842965 102*2024.280988 
102*2024.280988 102*2020.719012 
102*2020.719012 102*2017.157035 
102*2017.157035 102*2013.595058 
102*2013.595058 102*2010.033081 
102*2010.033081 102*2006.471104 
102*2006.471104 102*2002.909127 
102*2002.909127 102*1999.347150 
102*1999.347150 102*1995.785173 
102*1995.785173 102*1992.223196 
102*1992.223196 102*1988.661219 
102*1988.661219 102*1985.099242 
102*1985.099242 102*1981.537265 
102*1981.537265 102*1977.975288 
102*1977.975288 102*1974.413311 
102*1974.413311 102*1970.851334 