ZCORN
102*2037.003385 102*2035.607031 
102*2035.607031 102*2034.210677 
102*2034.210677 102*2032.814322 
102*2032.814322 102*2031.417968 
102*2031.417968 102*2030.021614 
102*2030.021614 102*2028.625260 
102*2028.625260 102*2027.228906 
102*2027.228906 102*2025.832552 
102*2025.832552 102*2024.436198 
102*2024.436198 102*2023.039843 
102*2023.039843 102*2021.643489 
102*2021.643489 102*2020.247135 
102*2020.247135 102*2018.850781 
102*2018.850781 102*2017.454427 
102*2017.454427 102*2016.058073 
102*2016.058073 102*2014.661719 
102*2014.661719 102*2013.265364 
102*2013.265364 102*2011.869010 
102*2011.869010 102*2010.472656 
102*2010.472656 102*2009.076302 
102*2009.076302 102*2007.679948 
102*2007.679948 102*2006.283594 
102*2006.283594 102*2004.887240 
102*2004.887240 102*2003.490885 
102*2003.490885 102*2002.094531 
102*2002.094531 102*2000.698177 
102*2000.698177 102*1999.301823 
102*1999.301823 102*1997.905469 
102*1997.905469 102*1996.509115 
102*1996.509115 102*1995.112760 
102*1995.112760 102*1993.716406 
102*1993.716406 102*1992.320052 
102*1992.320052 102*1990.923698 
102*1990.923698 102*1989.527344 
102*1989.527344 102*1988.130990 
102*1988.130990 102*1986.734636 
102*1986.734636 102*1985.338281 
102*1985.338281 102*1983.941927 
102*1983.941927 102*1982.545573 
102*1982.545573 102*1981.149219 
102*1981.149219 102*1979.752865 
102*1979.752865 102*1978.356511 
102*1978.356511 102*1976.960157 
102*1976.960157 102*1975.563802 
102*1975.563802 102*1974.167448 
102*1974.167448 102*1972.771094 
102*1972.771094 102*1971.374740 
102*1971.374740 102*1969.978386 
102*1969.978386 102*1968.582032 
102*1968.582032 102*1967.185678 
102*1967.185678 102*1965.789323 
102*2039.503385 102*2038.107031 
102*2038.107031 102*2036.710677 
102*2036.710677 102*2035.314322 
102*2035.314322 102*2033.917968 
102*2033.917968 102*2032.521614 
102*2032.521614 102*2031.125260 
102*2031.125260 102*2029.728906 
102*2029.728906 102*2028.332552 
102*2028.332552 102*2026.936198 
102*2026.936198 102*2025.539843 
102*2025.539843 102*2024.143489 
102*2024.143489 102*2022.747135 
102*2022.747135 102*2021.350781 
102*2021.350781 102*2019.954427 
102*2019.954427 102*2018.558073 
102*2018.558073 102*2017.161719 
102*2017.161719 102*2015.765364 
102*2015.765364 102*2014.369010 
102*2014.369010 102*2012.972656 
102*2012.972656 102*2011.576302 
102*2011.576302 102*2010.179948 
102*2010.179948 102*2008.783594 
102*2008.783594 102*2007.387240 
102*2007.387240 102*2005.990885 
102*2005.990885 102*2004.594531 
102*2004.594531 102*2003.198177 
102*2003.198177 102*2001.801823 
102*2001.801823 102*2000.405469 
102*2000.405469 102*1999.009115 
102*1999.009115 102*1997.612760 
102*1997.612760 102*1996.216406 
102*1996.216406 102*1994.820052 
102*1994.820052 102*1993.423698 
102*1993.423698 102*1992.027344 
102*1992.027344 102*1990.630990 
102*1990.630990 102*1989.234636 
102*1989.234636 102*1987.838281 
102*1987.838281 102*1986.441927 
102*1986.441927 102*1985.045573 
102*1985.045573 102*1983.649219 
102*1983.649219 102*1982.252865 
102*1982.252865 102*1980.856511 
102*1980.856511 102*1979.460157 
102*1979.460157 102*1978.063802 
102*1978.063802 102*1976.667448 
102*1976.667448 102*1975.271094 
102*1975.271094 102*1973.874740 
102*1973.874740 102*1972.478386 
102*1972.478386 102*1971.082032 
102*1971.082032 102*1969.685678 
102*1969.685678 102*1968.289323 
102*2039.503385 102*2038.107031 
102*2038.107031 102*2036.710677 
102*2036.710677 102*2035.314322 
102*2035.314322 102*2033.917968 
102*2033.917968 102*2032.521614 
102*2032.521614 102*2031.125260 
102*2031.125260 102*2029.728906 
102*2029.728906 102*2028.332552 
102*2028.332552 102*2026.936198 
102*2026.936198 102*2025.539843 
102*2025.539843 102*2024.143489 
102*2024.143489 102*2022.747135 
102*2022.747135 102*2021.350781 
102*2021.350781 102*2019.954427 
102*2019.954427 102*2018.558073 
102*2018.558073 102*2017.161719 
102*2017.161719 102*2015.765364 
102*2015.765364 102*2014.369010 
102*2014.369010 102*2012.972656 
102*2012.972656 102*2011.576302 
102*2011.576302 102*2010.179948 
102*2010.179948 102*2008.783594 
102*2008.783594 102*2007.387240 
102*2007.387240 102*2005.990885 
102*2005.990885 102*2004.594531 
102*2004.594531 102*2003.198177 
102*2003.198177 102*2001.801823 
102*2001.801823 102*2000.405469 
102*2000.405469 102*1999.009115 
102*1999.009115 102*1997.612760 
102*1997.612760 102*1996.216406 
102*1996.216406 102*1994.820052 
102*1994.820052 102*1993.423698 
102*1993.423698 102*1992.027344 
102*1992.027344 102*1990.630990 
102*1990.630990 102*1989.234636 
102*1989.234636 102*1987.838281 
102*1987.838281 102*1986.441927 
102*1986.441927 102*1985.045573 
102*1985.045573 102*1983.649219 
102*1983.649219 102*1982.252865 
102*1982.252865 102*1980.856511 
102*1980.856511 102*1979.460157 
102*1979.460157 102*1978.063802 
102*1978.063802 102*1976.667448 
102*1976.667448 102*1975.271094 
102*1975.271094 102*1973.874740 
102*1973.874740 102*1972.478386 
102*1972.478386 102*1971.082032 
102*1971.082032 102*1969.685678 
102*1969.685678 102*1968.289323 
102*2042.003385 102*2040.607031 
102*2040.607031 102*2039.210677 
102*2039.210677 102*2037.814322 
102*2037.814322 102*2036.417968 
102*2036.417968 102*2035.021614 
102*2035.021614 102*2033.625260 
102*2033.625260 102*2032.228906 
102*2032.228906 102*2030.832552 
102*2030.832552 102*2029.436198 
102*2029.436198 102*2028.039843 
102*2028.039843 102*2026.643489 
102*2026.643489 102*2025.247135 
102*2025.247135 102*2023.850781 
102*2023.850781 102*2022.454427 
102*2022.454427 102*2021.058073 
102*2021.058073 102*2019.661719 
102*2019.661719 102*2018.265364 
102*2018.265364 102*2016.869010 
102*2016.869010 102*2015.472656 
102*2015.472656 102*2014.076302 
102*2014.076302 102*2012.679948 
102*2012.679948 102*2011.283594 
102*2011.283594 102*2009.887240 
102*2009.887240 102*2008.490885 
102*2008.490885 102*2007.094531 
102*2007.094531 102*2005.698177 
102*2005.698177 102*2004.301823 
102*2004.301823 102*2002.905469 
102*2002.905469 102*2001.509115 
102*2001.509115 102*2000.112760 
102*2000.112760 102*1998.716406 
102*1998.716406 102*1997.320052 
102*1997.320052 102*1995.923698 
102*1995.923698 102*1994.527344 
102*1994.527344 102*1993.130990 
102*1993.130990 102*1991.734636 
102*1991.734636 102*1990.338281 
102*1990.338281 102*1988.941927 
102*1988.941927 102*1987.545573 
102*1987.545573 102*1986.149219 
102*1986.149219 102*1984.752865 
102*1984.752865 102*1983.356511 
102*1983.356511 102*1981.960157 
102*1981.960157 102*1980.563802 
102*1980.563802 102*1979.167448 
102*1979.167448 102*1977.771094 
102*1977.771094 102*1976.374740 
102*1976.374740 102*1974.978386 
102*1974.978386 102*1973.582032 
102*1973.582032 102*1972.185678 
102*1972.185678 102*1970.789323 
102*2042.003385 102*2040.607031 
102*2040.607031 102*2039.210677 
102*2039.210677 102*2037.814322 
102*2037.814322 102*2036.417968 
102*2036.417968 102*2035.021614 
102*2035.021614 102*2033.625260 
102*2033.625260 102*2032.228906 
102*2032.228906 102*2030.832552 
102*2030.832552 102*2029.436198 
102*2029.436198 102*2028.039843 
102*2028.039843 102*2026.643489 
102*2026.643489 102*2025.247135 
102*2025.247135 102*2023.850781 
102*2023.850781 102*2022.454427 
102*2022.454427 102*2021.058073 
102*2021.058073 102*2019.661719 
102*2019.661719 102*2018.265364 
102*2018.265364 102*2016.869010 
102*2016.869010 102*2015.472656 
102*2015.472656 102*2014.076302 
102*2014.076302 102*2012.679948 
102*2012.679948 102*2011.283594 
102*2011.283594 102*2009.887240 
102*2009.887240 102*2008.490885 
102*2008.490885 102*2007.094531 
102*2007.094531 102*2005.698177 
102*2005.698177 102*2004.301823 
102*2004.301823 102*2002.905469 
102*2002.905469 102*2001.509115 
102*2001.509115 102*2000.112760 
102*2000.112760 102*1998.716406 
102*1998.716406 102*1997.320052 
102*1997.320052 102*1995.923698 
102*1995.923698 102*1994.527344 
102*1994.527344 102*1993.130990 
102*1993.130990 102*1991.734636 
102*1991.734636 102*1990.338281 
102*1990.338281 102*1988.941927 
102*1988.941927 102*1987.545573 
102*1987.545573 102*1986.149219 
102*1986.149219 102*1984.752865 
102*1984.752865 102*1983.356511 
102*1983.356511 102*1981.960157 
102*1981.960157 102*1980.563802 
102*1980.563802 102*1979.167448 
102*1979.167448 102*1977.771094 
102*1977.771094 102*1976.374740 
102*1976.374740 102*1974.978386 
102*1974.978386 102*1973.582032 
102*1973.582032 102*1972.185678 
102*1972.185678 102*1970.789323 
102*2044.503385 102*2043.107031 
102*2043.107031 102*2041.710677 
102*2041.710677 102*2040.314322 
102*2040.314322 102*2038.917968 
102*2038.917968 102*2037.521614 
102*2037.521614 102*2036.125260 
102*2036.125260 102*2034.728906 
102*2034.728906 102*2033.332552 
102*2033.332552 102*2031.936198 
102*2031.936198 102*2030.539843 
102*2030.539843 102*2029.143489 
102*2029.143489 102*2027.747135 
102*2027.747135 102*2026.350781 
102*2026.350781 102*2024.954427 
102*2024.954427 102*2023.558073 
102*2023.558073 102*2022.161719 
102*2022.161719 102*2020.765364 
102*2020.765364 102*2019.369010 
102*2019.369010 102*2017.972656 
102*2017.972656 102*2016.576302 
102*2016.576302 102*2015.179948 
102*2015.179948 102*2013.783594 
102*2013.783594 102*2012.387240 
102*2012.387240 102*2010.990885 
102*2010.990885 102*2009.594531 
102*2009.594531 102*2008.198177 
102*2008.198177 102*2006.801823 
102*2006.801823 102*2005.405469 
102*2005.405469 102*2004.009115 
102*2004.009115 102*2002.612760 
102*2002.612760 102*2001.216406 
102*2001.216406 102*1999.820052 
102*1999.820052 102*1998.423698 
102*1998.423698 102*1997.027344 
102*1997.027344 102*1995.630990 
102*1995.630990 102*1994.234636 
102*1994.234636 102*1992.838281 
102*1992.838281 102*1991.441927 
102*1991.441927 102*1990.045573 
102*1990.045573 102*1988.649219 
102*1988.649219 102*1987.252865 
102*1987.252865 102*1985.856511 
102*1985.856511 102*1984.460157 
102*1984.460157 102*1983.063802 
102*1983.063802 102*1981.667448 
102*1981.667448 102*1980.271094 
102*1980.271094 102*1978.874740 
102*1978.874740 102*1977.478386 
102*1977.478386 102*1976.082032 
102*1976.082032 102*1974.685678 
102*1974.685678 102*1973.289323 
102*2044.503385 102*2043.107031 
102*2043.107031 102*2041.710677 
102*2041.710677 102*2040.314322 
102*2040.314322 102*2038.917968 
102*2038.917968 102*2037.521614 
102*2037.521614 102*2036.125260 
102*2036.125260 102*2034.728906 
102*2034.728906 102*2033.332552 
102*2033.332552 102*2031.936198 
102*2031.936198 102*2030.539843 
102*2030.539843 102*2029.143489 
102*2029.143489 102*2027.747135 
102*2027.747135 102*2026.350781 
102*2026.350781 102*2024.954427 
102*2024.954427 102*2023.558073 
102*2023.558073 102*2022.161719 
102*2022.161719 102*2020.765364 
102*2020.765364 102*2019.369010 
102*2019.369010 102*2017.972656 
102*2017.972656 102*2016.576302 
102*2016.576302 102*2015.179948 
102*2015.179948 102*2013.783594 
102*2013.783594 102*2012.387240 
102*2012.387240 102*2010.990885 
102*2010.990885 102*2009.594531 
102*2009.594531 102*2008.198177 
102*2008.198177 102*2006.801823 
102*2006.801823 102*2005.405469 
102*2005.405469 102*2004.009115 
102*2004.009115 102*2002.612760 
102*2002.612760 102*2001.216406 
102*2001.216406 102*1999.820052 
102*1999.820052 102*1998.423698 
102*1998.423698 102*1997.027344 
102*1997.027344 102*1995.630990 
102*1995.630990 102*1994.234636 
102*1994.234636 102*1992.838281 
102*1992.838281 102*1991.441927 
102*1991.441927 102*1990.045573 
102*1990.045573 102*1988.649219 
102*1988.649219 102*1987.252865 
102*1987.252865 102*1985.856511 
102*1985.856511 102*1984.460157 
102*1984.460157 102*1983.063802 
102*1983.063802 102*1981.667448 
102*1981.667448 102*1980.271094 
102*1980.271094 102*1978.874740 
102*1978.874740 102*1977.478386 
102*1977.478386 102*1976.082032 
102*1976.082032 102*1974.685678 
102*1974.685678 102*1973.289323 
102*2047.003385 102*2045.607031 
102*2045.607031 102*2044.210677 
102*2044.210677 102*2042.814322 
102*2042.814322 102*2041.417968 
102*2041.417968 102*2040.021614 
102*2040.021614 102*2038.625260 
102*2038.625260 102*2037.228906 
102*2037.228906 102*2035.832552 
102*2035.832552 102*2034.436198 
102*2034.436198 102*2033.039843 
102*2033.039843 102*2031.643489 
102*2031.643489 102*2030.247135 
102*2030.247135 102*2028.850781 
102*2028.850781 102*2027.454427 
102*2027.454427 102*2026.058073 
102*2026.058073 102*2024.661719 
102*2024.661719 102*2023.265364 
102*2023.265364 102*2021.869010 
102*2021.869010 102*2020.472656 
102*2020.472656 102*2019.076302 
102*2019.076302 102*2017.679948 
102*2017.679948 102*2016.283594 
102*2016.283594 102*2014.887240 
102*2014.887240 102*2013.490885 
102*2013.490885 102*2012.094531 
102*2012.094531 102*2010.698177 
102*2010.698177 102*2009.301823 
102*2009.301823 102*2007.905469 
102*2007.905469 102*2006.509115 
102*2006.509115 102*2005.112760 
102*2005.112760 102*2003.716406 
102*2003.716406 102*2002.320052 
102*2002.320052 102*2000.923698 
102*2000.923698 102*1999.527344 
102*1999.527344 102*1998.130990 
102*1998.130990 102*1996.734636 
102*1996.734636 102*1995.338281 
102*1995.338281 102*1993.941927 
102*1993.941927 102*1992.545573 
102*1992.545573 102*1991.149219 
102*1991.149219 102*1989.752865 
102*1989.752865 102*1988.356511 
102*1988.356511 102*1986.960157 
102*1986.960157 102*1985.563802 
102*1985.563802 102*1984.167448 
102*1984.167448 102*1982.771094 
102*1982.771094 102*1981.374740 
102*1981.374740 102*1979.978386 
102*1979.978386 102*1978.582032 
102*1978.582032 102*1977.185678 
102*1977.185678 102*1975.789323 
102*2047.003385 102*2045.607031 
102*2045.607031 102*2044.210677 
102*2044.210677 102*2042.814322 
102*2042.814322 102*2041.417968 
102*2041.417968 102*2040.021614 
102*2040.021614 102*2038.625260 
102*2038.625260 102*2037.228906 
102*2037.228906 102*2035.832552 
102*2035.832552 102*2034.436198 
102*2034.436198 102*2033.039843 
102*2033.039843 102*2031.643489 
102*2031.643489 102*2030.247135 
102*2030.247135 102*2028.850781 
102*2028.850781 102*2027.454427 
102*2027.454427 102*2026.058073 
102*2026.058073 102*2024.661719 
102*2024.661719 102*2023.265364 
102*2023.265364 102*2021.869010 
102*2021.869010 102*2020.472656 
102*2020.472656 102*2019.076302 
102*2019.076302 102*2017.679948 
102*2017.679948 102*2016.283594 
102*2016.283594 102*2014.887240 
102*2014.887240 102*2013.490885 
102*2013.490885 102*2012.094531 
102*2012.094531 102*2010.698177 
102*2010.698177 102*2009.301823 
102*2009.301823 102*2007.905469 
102*2007.905469 102*2006.509115 
102*2006.509115 102*2005.112760 
102*2005.112760 102*2003.716406 
102*2003.716406 102*2002.320052 
102*2002.320052 102*2000.923698 
102*2000.923698 102*1999.527344 
102*1999.527344 102*1998.130990 
102*1998.130990 102*1996.734636 
102*1996.734636 102*1995.338281 
102*1995.338281 102*1993.941927 
102*1993.941927 102*1992.545573 
102*1992.545573 102*1991.149219 
102*1991.149219 102*1989.752865 
102*1989.752865 102*1988.356511 
102*1988.356511 102*1986.960157 
102*1986.960157 102*1985.563802 
102*1985.563802 102*1984.167448 
102*1984.167448 102*1982.771094 
102*1982.771094 102*1981.374740 
102*1981.374740 102*1979.978386 
102*1979.978386 102*1978.582032 
102*1978.582032 102*1977.185678 
102*1977.185678 102*1975.789323 
102*2049.503385 102*2048.107031 
102*2048.107031 102*2046.710677 
102*2046.710677 102*2045.314322 
102*2045.314322 102*2043.917968 
102*2043.917968 102*2042.521614 
102*2042.521614 102*2041.125260 
102*2041.125260 102*2039.728906 
102*2039.728906 102*2038.332552 
102*2038.332552 102*2036.936198 
102*2036.936198 102*2035.539843 
102*2035.539843 102*2034.143489 
102*2034.143489 102*2032.747135 
102*2032.747135 102*2031.350781 
102*2031.350781 102*2029.954427 
102*2029.954427 102*2028.558073 
102*2028.558073 102*2027.161719 
102*2027.161719 102*2025.765364 
102*2025.765364 102*2024.369010 
102*2024.369010 102*2022.972656 
102*2022.972656 102*2021.576302 
102*2021.576302 102*2020.179948 
102*2020.179948 102*2018.783594 
102*2018.783594 102*2017.387240 
102*2017.387240 102*2015.990885 
102*2015.990885 102*2014.594531 
102*2014.594531 102*2013.198177 
102*2013.198177 102*2011.801823 
102*2011.801823 102*2010.405469 
102*2010.405469 102*2009.009115 
102*2009.009115 102*2007.612760 
102*2007.612760 102*2006.216406 
102*2006.216406 102*2004.820052 
102*2004.820052 102*2003.423698 
102*2003.423698 102*2002.027344 
102*2002.027344 102*2000.630990 
102*2000.630990 102*1999.234636 
102*1999.234636 102*1997.838281 
102*1997.838281 102*1996.441927 
102*1996.441927 102*1995.045573 
102*1995.045573 102*1993.649219 
102*1993.649219 102*1992.252865 
102*1992.252865 102*1990.856511 
102*1990.856511 102*1989.460157 
102*1989.460157 102*1988.063802 
102*1988.063802 102*1986.667448 
102*1986.667448 102*1985.271094 
102*1985.271094 102*1983.874740 
102*1983.874740 102*1982.478386 
102*1982.478386 102*1981.082032 
102*1981.082032 102*1979.685678 
102*1979.685678 102*1978.289323 
102*2049.503385 102*2048.107031 
102*2048.107031 102*2046.710677 
102*2046.710677 102*2045.314322 
102*2045.314322 102*2043.917968 
102*2043.917968 102*2042.521614 
102*2042.521614 102*2041.125260 
102*2041.125260 102*2039.728906 
102*2039.728906 102*2038.332552 
102*2038.332552 102*2036.936198 
102*2036.936198 102*2035.539843 
102*2035.539843 102*2034.143489 
102*2034.143489 102*2032.747135 
102*2032.747135 102*2031.350781 
102*2031.350781 102*2029.954427 
102*2029.954427 102*2028.558073 
102*2028.558073 102*2027.161719 
102*2027.161719 102*2025.765364 
102*2025.765364 102*2024.369010 
102*2024.369010 102*2022.972656 
102*2022.972656 102*2021.576302 
102*2021.576302 102*2020.179948 
102*2020.179948 102*2018.783594 
102*2018.783594 102*2017.387240 
102*2017.387240 102*2015.990885 
102*2015.990885 102*2014.594531 
102*2014.594531 102*2013.198177 
102*2013.198177 102*2011.801823 
102*2011.801823 102*2010.405469 
102*2010.405469 102*2009.009115 
102*2009.009115 102*2007.612760 
102*2007.612760 102*2006.216406 
102*2006.216406 102*2004.820052 
102*2004.820052 102*2003.423698 
102*2003.423698 102*2002.027344 
102*2002.027344 102*2000.630990 
102*2000.630990 102*1999.234636 
102*1999.234636 102*1997.838281 
102*1997.838281 102*1996.441927 
102*1996.441927 102*1995.045573 
102*1995.045573 102*1993.649219 
102*1993.649219 102*1992.252865 
102*1992.252865 102*1990.856511 
102*1990.856511 102*1989.460157 
102*1989.460157 102*1988.063802 
102*1988.063802 102*1986.667448 
102*1986.667448 102*1985.271094 
102*1985.271094 102*1983.874740 
102*1983.874740 102*1982.478386 
102*1982.478386 102*1981.082032 
102*1981.082032 102*1979.685678 
102*1979.685678 102*1978.289323 
102*2052.003385 102*2050.607031 
102*2050.607031 102*2049.210677 
102*2049.210677 102*2047.814322 
102*2047.814322 102*2046.417968 
102*2046.417968 102*2045.021614 
102*2045.021614 102*2043.625260 
102*2043.625260 102*2042.228906 
102*2042.228906 102*2040.832552 
102*2040.832552 102*2039.436198 
102*2039.436198 102*2038.039843 
102*2038.039843 102*2036.643489 
102*2036.643489 102*2035.247135 
102*2035.247135 102*2033.850781 
102*2033.850781 102*2032.454427 
102*2032.454427 102*2031.058073 
102*2031.058073 102*2029.661719 
102*2029.661719 102*2028.265364 
102*2028.265364 102*2026.869010 
102*2026.869010 102*2025.472656 
102*2025.472656 102*2024.076302 
102*2024.076302 102*2022.679948 
102*2022.679948 102*2021.283594 
102*2021.283594 102*2019.887240 
102*2019.887240 102*2018.490885 
102*2018.490885 102*2017.094531 
102*2017.094531 102*2015.698177 
102*2015.698177 102*2014.301823 
102*2014.301823 102*2012.905469 
102*2012.905469 102*2011.509115 
102*2011.509115 102*2010.112760 
102*2010.112760 102*2008.716406 
102*2008.716406 102*2007.320052 
102*2007.320052 102*2005.923698 
102*2005.923698 102*2004.527344 
102*2004.527344 102*2003.130990 
102*2003.130990 102*2001.734636 
102*2001.734636 102*2000.338281 
102*2000.338281 102*1998.941927 
102*1998.941927 102*1997.545573 
102*1997.545573 102*1996.149219 
102*1996.149219 102*1994.752865 
102*1994.752865 102*1993.356511 
102*1993.356511 102*1991.960157 
102*1991.960157 102*1990.563802 
102*1990.563802 102*1989.167448 
102*1989.167448 102*1987.771094 
102*1987.771094 102*1986.374740 
102*1986.374740 102*1984.978386 
102*1984.978386 102*1983.582032 
102*1983.582032 102*1982.185678 
102*1982.185678 102*1980.789323 
102*2052.003385 102*2050.607031 
102*2050.607031 102*2049.210677 
102*2049.210677 102*2047.814322 
102*2047.814322 102*2046.417968 
102*2046.417968 102*2045.021614 
102*2045.021614 102*2043.625260 
102*2043.625260 102*2042.228906 
102*2042.228906 102*2040.832552 
102*2040.832552 102*2039.436198 
102*2039.436198 102*2038.039843 
102*2038.039843 102*2036.643489 
102*2036.643489 102*2035.247135 
102*2035.247135 102*2033.850781 
102*2033.850781 102*2032.454427 
102*2032.454427 102*2031.058073 
102*2031.058073 102*2029.661719 
102*2029.661719 102*2028.265364 
102*2028.265364 102*2026.869010 
102*2026.869010 102*2025.472656 
102*2025.472656 102*2024.076302 
102*2024.076302 102*2022.679948 
102*2022.679948 102*2021.283594 
102*2021.283594 102*2019.887240 
102*2019.887240 102*2018.490885 
102*2018.490885 102*2017.094531 
102*2017.094531 102*2015.698177 
102*2015.698177 102*2014.301823 
102*2014.301823 102*2012.905469 
102*2012.905469 102*2011.509115 
102*2011.509115 102*2010.112760 
102*2010.112760 102*2008.716406 
102*2008.716406 102*2007.320052 
102*2007.320052 102*2005.923698 
102*2005.923698 102*2004.527344 
102*2004.527344 102*2003.130990 
102*2003.130990 102*2001.734636 
102*2001.734636 102*2000.338281 
102*2000.338281 102*1998.941927 
102*1998.941927 102*1997.545573 
102*1997.545573 102*1996.149219 
102*1996.149219 102*1994.752865 
102*1994.752865 102*1993.356511 
102*1993.356511 102*1991.960157 
102*1991.960157 102*1990.563802 
102*1990.563802 102*1989.167448 
102*1989.167448 102*1987.771094 
102*1987.771094 102*1986.374740 
102*1986.374740 102*1984.978386 
102*1984.978386 102*1983.582032 
102*1983.582032 102*1982.185678 
102*1982.185678 102*1980.789323 
102*2054.503385 102*2053.107031 
102*2053.107031 102*2051.710677 
102*2051.710677 102*2050.314322 
102*2050.314322 102*2048.917968 
102*2048.917968 102*2047.521614 
102*2047.521614 102*2046.125260 
102*2046.125260 102*2044.728906 
102*2044.728906 102*2043.332552 
102*2043.332552 102*2041.936198 
102*2041.936198 102*2040.539843 
102*2040.539843 102*2039.143489 
102*2039.143489 102*2037.747135 
102*2037.747135 102*2036.350781 
102*2036.350781 102*2034.954427 
102*2034.954427 102*2033.558073 
102*2033.558073 102*2032.161719 
102*2032.161719 102*2030.765364 
102*2030.765364 102*2029.369010 
102*2029.369010 102*2027.972656 
102*2027.972656 102*2026.576302 
102*2026.576302 102*2025.179948 
102*2025.179948 102*2023.783594 
102*2023.783594 102*2022.387240 
102*2022.387240 102*2020.990885 
102*2020.990885 102*2019.594531 
102*2019.594531 102*2018.198177 
102*2018.198177 102*2016.801823 
102*2016.801823 102*2015.405469 
102*2015.405469 102*2014.009115 
102*2014.009115 102*2012.612760 
102*2012.612760 102*2011.216406 
102*2011.216406 102*2009.820052 
102*2009.820052 102*2008.423698 
102*2008.423698 102*2007.027344 
102*2007.027344 102*2005.630990 
102*2005.630990 102*2004.234636 
102*2004.234636 102*2002.838281 
102*2002.838281 102*2001.441927 
102*2001.441927 102*2000.045573 
102*2000.045573 102*1998.649219 
102*1998.649219 102*1997.252865 
102*1997.252865 102*1995.856511 
102*1995.856511 102*1994.460157 
102*1994.460157 102*1993.063802 
102*1993.063802 102*1991.667448 
102*1991.667448 102*1990.271094 
102*1990.271094 102*1988.874740 
102*1988.874740 102*1987.478386 
102*1987.478386 102*1986.082032 
102*1986.082032 102*1984.685678 
102*1984.685678 102*1983.289323 
102*2054.503385 102*2053.107031 
102*2053.107031 102*2051.710677 
102*2051.710677 102*2050.314322 
102*2050.314322 102*2048.917968 
102*2048.917968 102*2047.521614 
102*2047.521614 102*2046.125260 
102*2046.125260 102*2044.728906 
102*2044.728906 102*2043.332552 
102*2043.332552 102*2041.936198 
102*2041.936198 102*2040.539843 
102*2040.539843 102*2039.143489 
102*2039.143489 102*2037.747135 
102*2037.747135 102*2036.350781 
102*2036.350781 102*2034.954427 
102*2034.954427 102*2033.558073 
102*2033.558073 102*2032.161719 
102*2032.161719 102*2030.765364 
102*2030.765364 102*2029.369010 
102*2029.369010 102*2027.972656 
102*2027.972656 102*2026.576302 
102*2026.576302 102*2025.179948 
102*2025.179948 102*2023.783594 
102*2023.783594 102*2022.387240 
102*2022.387240 102*2020.990885 
102*2020.990885 102*2019.594531 
102*2019.594531 102*2018.198177 
102*2018.198177 102*2016.801823 
102*2016.801823 102*2015.405469 
102*2015.405469 102*2014.009115 
102*2014.009115 102*2012.612760 
102*2012.612760 102*2011.216406 
102*2011.216406 102*2009.820052 
102*2009.820052 102*2008.423698 
102*2008.423698 102*2007.027344 
102*2007.027344 102*2005.630990 
102*2005.630990 102*2004.234636 
102*2004.234636 102*2002.838281 
102*2002.838281 102*2001.441927 
102*2001.441927 102*2000.045573 
102*2000.045573 102*1998.649219 
102*1998.649219 102*1997.252865 
102*1997.252865 102*1995.856511 
102*1995.856511 102*1994.460157 
102*1994.460157 102*1993.063802 
102*1993.063802 102*1991.667448 
102*1991.667448 102*1990.271094 
102*1990.271094 102*1988.874740 
102*1988.874740 102*1987.478386 
102*1987.478386 102*1986.082032 
102*1986.082032 102*1984.685678 
102*1984.685678 102*1983.289323 
102*2057.003385 102*2055.607031 
102*2055.607031 102*2054.210677 
102*2054.210677 102*2052.814322 
102*2052.814322 102*2051.417968 
102*2051.417968 102*2050.021614 
102*2050.021614 102*2048.625260 
102*2048.625260 102*2047.228906 
102*2047.228906 102*2045.832552 
102*2045.832552 102*2044.436198 
102*2044.436198 102*2043.039843 
102*2043.039843 102*2041.643489 
102*2041.643489 102*2040.247135 
102*2040.247135 102*2038.850781 
102*2038.850781 102*2037.454427 
102*2037.454427 102*2036.058073 
102*2036.058073 102*2034.661719 
102*2034.661719 102*2033.265364 
102*2033.265364 102*2031.869010 
102*2031.869010 102*2030.472656 
102*2030.472656 102*2029.076302 
102*2029.076302 102*2027.679948 
102*2027.679948 102*2026.283594 
102*2026.283594 102*2024.887240 
102*2024.887240 102*2023.490885 
102*2023.490885 102*2022.094531 
102*2022.094531 102*2020.698177 
102*2020.698177 102*2019.301823 
102*2019.301823 102*2017.905469 
102*2017.905469 102*2016.509115 
102*2016.509115 102*2015.112760 
102*2015.112760 102*2013.716406 
102*2013.716406 102*2012.320052 
102*2012.320052 102*2010.923698 
102*2010.923698 102*2009.527344 
102*2009.527344 102*2008.130990 
102*2008.130990 102*2006.734636 
102*2006.734636 102*2005.338281 
102*2005.338281 102*2003.941927 
102*2003.941927 102*2002.545573 
102*2002.545573 102*2001.149219 
102*2001.149219 102*1999.752865 
102*1999.752865 102*1998.356511 
102*1998.356511 102*1996.960157 
102*1996.960157 102*1995.563802 
102*1995.563802 102*1994.167448 
102*1994.167448 102*1992.771094 
102*1992.771094 102*1991.374740 
102*1991.374740 102*1989.978386 
102*1989.978386 102*1988.582032 
102*1988.582032 102*1987.185678 
102*1987.185678 102*1985.789323 
102*2057.003385 102*2055.607031 
102*2055.607031 102*2054.210677 
102*2054.210677 102*2052.814322 
102*2052.814322 102*2051.417968 
102*2051.417968 102*2050.021614 
102*2050.021614 102*2048.625260 
102*2048.625260 102*2047.228906 
102*2047.228906 102*2045.832552 
102*2045.832552 102*2044.436198 
102*2044.436198 102*2043.039843 
102*2043.039843 102*2041.643489 
102*2041.643489 102*2040.247135 
102*2040.247135 102*2038.850781 
102*2038.850781 102*2037.454427 
102*2037.454427 102*2036.058073 
102*2036.058073 102*2034.661719 
102*2034.661719 102*2033.265364 
102*2033.265364 102*2031.869010 
102*2031.869010 102*2030.472656 
102*2030.472656 102*2029.076302 
102*2029.076302 102*2027.679948 
102*2027.679948 102*2026.283594 
102*2026.283594 102*2024.887240 
102*2024.887240 102*2023.490885 
102*2023.490885 102*2022.094531 
102*2022.094531 102*2020.698177 
102*2020.698177 102*2019.301823 
102*2019.301823 102*2017.905469 
102*2017.905469 102*2016.509115 
102*2016.509115 102*2015.112760 
102*2015.112760 102*2013.716406 
102*2013.716406 102*2012.320052 
102*2012.320052 102*2010.923698 
102*2010.923698 102*2009.527344 
102*2009.527344 102*2008.130990 
102*2008.130990 102*2006.734636 
102*2006.734636 102*2005.338281 
102*2005.338281 102*2003.941927 
102*2003.941927 102*2002.545573 
102*2002.545573 102*2001.149219 
102*2001.149219 102*1999.752865 
102*1999.752865 102*1998.356511 
102*1998.356511 102*1996.960157 
102*1996.960157 102*1995.563802 
102*1995.563802 102*1994.167448 
102*1994.167448 102*1992.771094 
102*1992.771094 102*1991.374740 
102*1991.374740 102*1989.978386 
102*1989.978386 102*1988.582032 
102*1988.582032 102*1987.185678 
102*1987.185678 102*1985.789323 
102*2059.503385 102*2058.107031 
102*2058.107031 102*2056.710677 
102*2056.710677 102*2055.314322 
102*2055.314322 102*2053.917968 
102*2053.917968 102*2052.521614 
102*2052.521614 102*2051.125260 
102*2051.125260 102*2049.728906 
102*2049.728906 102*2048.332552 
102*2048.332552 102*2046.936198 
102*2046.936198 102*2045.539843 
102*2045.539843 102*2044.143489 
102*2044.143489 102*2042.747135 
102*2042.747135 102*2041.350781 
102*2041.350781 102*2039.954427 
102*2039.954427 102*2038.558073 
102*2038.558073 102*2037.161719 
102*2037.161719 102*2035.765364 
102*2035.765364 102*2034.369010 
102*2034.369010 102*2032.972656 
102*2032.972656 102*2031.576302 
102*2031.576302 102*2030.179948 
102*2030.179948 102*2028.783594 
102*2028.783594 102*2027.387240 
102*2027.387240 102*2025.990885 
102*2025.990885 102*2024.594531 
102*2024.594531 102*2023.198177 
102*2023.198177 102*2021.801823 
102*2021.801823 102*2020.405469 
102*2020.405469 102*2019.009115 
102*2019.009115 102*2017.612760 
102*2017.612760 102*2016.216406 
102*2016.216406 102*2014.820052 
102*2014.820052 102*2013.423698 
102*2013.423698 102*2012.027344 
102*2012.027344 102*2010.630990 
102*2010.630990 102*2009.234636 
102*2009.234636 102*2007.838281 
102*2007.838281 102*2006.441927 
102*2006.441927 102*2005.045573 
102*2005.045573 102*2003.649219 
102*2003.649219 102*2002.252865 