ZCORN
102*2010.175320 102*2009.791345 
102*2009.791345 102*2009.407371 
102*2009.407371 102*2009.023397 
102*2009.023397 102*2008.639422 
102*2008.639422 102*2008.255448 
102*2008.255448 102*2007.871474 
102*2007.871474 102*2007.487499 
102*2007.487499 102*2007.103525 
102*2007.103525 102*2006.719551 
102*2006.719551 102*2006.335576 
102*2006.335576 102*2005.951602 
102*2005.951602 102*2005.567628 
102*2005.567628 102*2005.183653 
102*2005.183653 102*2004.799679 
102*2004.799679 102*2004.415705 
102*2004.415705 102*2004.031730 
102*2004.031730 102*2003.647756 
102*2003.647756 102*2003.263782 
102*2003.263782 102*2002.879807 
102*2002.879807 102*2002.495833 
102*2002.495833 102*2002.111859 
102*2002.111859 102*2001.727884 
102*2001.727884 102*2001.343910 
102*2001.343910 102*2000.959936 
102*2000.959936 102*2000.575961 
102*2000.575961 102*2000.191987 
102*2000.191987 102*1999.808013 
102*1999.808013 102*1999.424039 
102*1999.424039 102*1999.040064 
102*1999.040064 102*1998.656090 
102*1998.656090 102*1998.272116 
102*1998.272116 102*1997.888141 
102*1997.888141 102*1997.504167 
102*1997.504167 102*1997.120193 
102*1997.120193 102*1996.736218 
102*1996.736218 102*1996.352244 
102*1996.352244 102*1995.968270 
102*1995.968270 102*1995.584295 
102*1995.584295 102*1995.200321 
102*1995.200321 102*1994.816347 
102*1994.816347 102*1994.432372 
102*1994.432372 102*1994.048398 
102*1994.048398 102*1993.664424 
102*1993.664424 102*1993.280449 
102*1993.280449 102*1992.896475 
102*1992.896475 102*1992.512501 
102*1992.512501 102*1992.128526 
102*1992.128526 102*1991.744552 
102*1991.744552 102*1991.360578 
102*1991.360578 102*1990.976603 
102*1990.976603 102*1990.592629 
102*2012.675320 102*2012.291345 
102*2012.291345 102*2011.907371 
102*2011.907371 102*2011.523397 
102*2011.523397 102*2011.139422 
102*2011.139422 102*2010.755448 
102*2010.755448 102*2010.371474 
102*2010.371474 102*2009.987499 
102*2009.987499 102*2009.603525 
102*2009.603525 102*2009.219551 
102*2009.219551 102*2008.835576 
102*2008.835576 102*2008.451602 
102*2008.451602 102*2008.067628 
102*2008.067628 102*2007.683653 
102*2007.683653 102*2007.299679 
102*2007.299679 102*2006.915705 
102*2006.915705 102*2006.531730 
102*2006.531730 102*2006.147756 
102*2006.147756 102*2005.763782 
102*2005.763782 102*2005.379807 
102*2005.379807 102*2004.995833 
102*2004.995833 102*2004.611859 
102*2004.611859 102*2004.227884 
102*2004.227884 102*2003.843910 
102*2003.843910 102*2003.459936 
102*2003.459936 102*2003.075961 
102*2003.075961 102*2002.691987 
102*2002.691987 102*2002.308013 
102*2002.308013 102*2001.924039 
102*2001.924039 102*2001.540064 
102*2001.540064 102*2001.156090 
102*2001.156090 102*2000.772116 
102*2000.772116 102*2000.388141 
102*2000.388141 102*2000.004167 
102*2000.004167 102*1999.620193 
102*1999.620193 102*1999.236218 
102*1999.236218 102*1998.852244 
102*1998.852244 102*1998.468270 
102*1998.468270 102*1998.084295 
102*1998.084295 102*1997.700321 
102*1997.700321 102*1997.316347 
102*1997.316347 102*1996.932372 
102*1996.932372 102*1996.548398 
102*1996.548398 102*1996.164424 
102*1996.164424 102*1995.780449 
102*1995.780449 102*1995.396475 
102*1995.396475 102*1995.012501 
102*1995.012501 102*1994.628526 
102*1994.628526 102*1994.244552 
102*1994.244552 102*1993.860578 
102*1993.860578 102*1993.476603 
102*1993.476603 102*1993.092629 
102*2012.675320 102*2012.291345 
102*2012.291345 102*2011.907371 
102*2011.907371 102*2011.523397 
102*2011.523397 102*2011.139422 
102*2011.139422 102*2010.755448 
102*2010.755448 102*2010.371474 
102*2010.371474 102*2009.987499 
102*2009.987499 102*2009.603525 
102*2009.603525 102*2009.219551 
102*2009.219551 102*2008.835576 
102*2008.835576 102*2008.451602 
102*2008.451602 102*2008.067628 
102*2008.067628 102*2007.683653 
102*2007.683653 102*2007.299679 
102*2007.299679 102*2006.915705 
102*2006.915705 102*2006.531730 
102*2006.531730 102*2006.147756 
102*2006.147756 102*2005.763782 
102*2005.763782 102*2005.379807 
102*2005.379807 102*2004.995833 
102*2004.995833 102*2004.611859 
102*2004.611859 102*2004.227884 
102*2004.227884 102*2003.843910 
102*2003.843910 102*2003.459936 
102*2003.459936 102*2003.075961 
102*2003.075961 102*2002.691987 
102*2002.691987 102*2002.308013 
102*2002.308013 102*2001.924039 
102*2001.924039 102*2001.540064 
102*2001.540064 102*2001.156090 
102*2001.156090 102*2000.772116 
102*2000.772116 102*2000.388141 
102*2000.388141 102*2000.004167 
102*2000.004167 102*1999.620193 
102*1999.620193 102*1999.236218 
102*1999.236218 102*1998.852244 
102*1998.852244 102*1998.468270 
102*1998.468270 102*1998.084295 
102*1998.084295 102*1997.700321 
102*1997.700321 102*1997.316347 
102*1997.316347 102*1996.932372 
102*1996.932372 102*1996.548398 
102*1996.548398 102*1996.164424 
102*1996.164424 102*1995.780449 
102*1995.780449 102*1995.396475 
102*1995.396475 102*1995.012501 
102*1995.012501 102*1994.628526 
102*1994.628526 102*1994.244552 
102*1994.244552 102*1993.860578 
102*1993.860578 102*1993.476603 
102*1993.476603 102*1993.092629 
102*2015.175320 102*2014.791345 
102*2014.791345 102*2014.407371 
102*2014.407371 102*2014.023397 
102*2014.023397 102*2013.639422 
102*2013.639422 102*2013.255448 
102*2013.255448 102*2012.871474 
102*2012.871474 102*2012.487499 
102*2012.487499 102*2012.103525 
102*2012.103525 102*2011.719551 
102*2011.719551 102*2011.335576 
102*2011.335576 102*2010.951602 
102*2010.951602 102*2010.567628 
102*2010.567628 102*2010.183653 
102*2010.183653 102*2009.799679 
102*2009.799679 102*2009.415705 
102*2009.415705 102*2009.031730 
102*2009.031730 102*2008.647756 
102*2008.647756 102*2008.263782 
102*2008.263782 102*2007.879807 
102*2007.879807 102*2007.495833 
102*2007.495833 102*2007.111859 
102*2007.111859 102*2006.727884 
102*2006.727884 102*2006.343910 
102*2006.343910 102*2005.959936 
102*2005.959936 102*2005.575961 
102*2005.575961 102*2005.191987 
102*2005.191987 102*2004.808013 
102*2004.808013 102*2004.424039 
102*2004.424039 102*2004.040064 
102*2004.040064 102*2003.656090 
102*2003.656090 102*2003.272116 
102*2003.272116 102*2002.888141 
102*2002.888141 102*2002.504167 
102*2002.504167 102*2002.120193 
102*2002.120193 102*2001.736218 
102*2001.736218 102*2001.352244 
102*2001.352244 102*2000.968270 
102*2000.968270 102*2000.584295 
102*2000.584295 102*2000.200321 
102*2000.200321 102*1999.816347 
102*1999.816347 102*1999.432372 
102*1999.432372 102*1999.048398 
102*1999.048398 102*1998.664424 
102*1998.664424 102*1998.280449 
102*1998.280449 102*1997.896475 
102*1997.896475 102*1997.512501 
102*1997.512501 102*1997.128526 
102*1997.128526 102*1996.744552 
102*1996.744552 102*1996.360578 
102*1996.360578 102*1995.976603 
102*1995.976603 102*1995.592629 
102*2015.175320 102*2014.791345 
102*2014.791345 102*2014.407371 
102*2014.407371 102*2014.023397 
102*2014.023397 102*2013.639422 
102*2013.639422 102*2013.255448 
102*2013.255448 102*2012.871474 
102*2012.871474 102*2012.487499 
102*2012.487499 102*2012.103525 
102*2012.103525 102*2011.719551 
102*2011.719551 102*2011.335576 
102*2011.335576 102*2010.951602 
102*2010.951602 102*2010.567628 
102*2010.567628 102*2010.183653 
102*2010.183653 102*2009.799679 
102*2009.799679 102*2009.415705 
102*2009.415705 102*2009.031730 
102*2009.031730 102*2008.647756 
102*2008.647756 102*2008.263782 
102*2008.263782 102*2007.879807 
102*2007.879807 102*2007.495833 
102*2007.495833 102*2007.111859 
102*2007.111859 102*2006.727884 
102*2006.727884 102*2006.343910 
102*2006.343910 102*2005.959936 
102*2005.959936 102*2005.575961 
102*2005.575961 102*2005.191987 
102*2005.191987 102*2004.808013 
102*2004.808013 102*2004.424039 
102*2004.424039 102*2004.040064 
102*2004.040064 102*2003.656090 
102*2003.656090 102*2003.272116 
102*2003.272116 102*2002.888141 
102*2002.888141 102*2002.504167 
102*2002.504167 102*2002.120193 
102*2002.120193 102*2001.736218 
102*2001.736218 102*2001.352244 
102*2001.352244 102*2000.968270 
102*2000.968270 102*2000.584295 
102*2000.584295 102*2000.200321 
102*2000.200321 102*1999.816347 
102*1999.816347 102*1999.432372 
102*1999.432372 102*1999.048398 
102*1999.048398 102*1998.664424 
102*1998.664424 102*1998.280449 
102*1998.280449 102*1997.896475 
102*1997.896475 102*1997.512501 
102*1997.512501 102*1997.128526 
102*1997.128526 102*1996.744552 
102*1996.744552 102*1996.360578 
102*1996.360578 102*1995.976603 
102*1995.976603 102*1995.592629 
102*2017.675320 102*2017.291345 
102*2017.291345 102*2016.907371 
102*2016.907371 102*2016.523397 
102*2016.523397 102*2016.139422 
102*2016.139422 102*2015.755448 
102*2015.755448 102*2015.371474 
102*2015.371474 102*2014.987499 
102*2014.987499 102*2014.603525 
102*2014.603525 102*2014.219551 
102*2014.219551 102*2013.835576 
102*2013.835576 102*2013.451602 
102*2013.451602 102*2013.067628 
102*2013.067628 102*2012.683653 
102*2012.683653 102*2012.299679 
102*2012.299679 102*2011.915705 
102*2011.915705 102*2011.531730 
102*2011.531730 102*2011.147756 
102*2011.147756 102*2010.763782 
102*2010.763782 102*2010.379807 
102*2010.379807 102*2009.995833 
102*2009.995833 102*2009.611859 
102*2009.611859 102*2009.227884 
102*2009.227884 102*2008.843910 
102*2008.843910 102*2008.459936 
102*2008.459936 102*2008.075961 
102*2008.075961 102*2007.691987 
102*2007.691987 102*2007.308013 
102*2007.308013 102*2006.924039 
102*2006.924039 102*2006.540064 
102*2006.540064 102*2006.156090 
102*2006.156090 102*2005.772116 
102*2005.772116 102*2005.388141 
102*2005.388141 102*2005.004167 
102*2005.004167 102*2004.620193 
102*2004.620193 102*2004.236218 
102*2004.236218 102*2003.852244 
102*2003.852244 102*2003.468270 
102*2003.468270 102*2003.084295 
102*2003.084295 102*2002.700321 
102*2002.700321 102*2002.316347 
102*2002.316347 102*2001.932372 
102*2001.932372 102*2001.548398 
102*2001.548398 102*2001.164424 
102*2001.164424 102*2000.780449 
102*2000.780449 102*2000.396475 
102*2000.396475 102*2000.012501 
102*2000.012501 102*1999.628526 
102*1999.628526 102*1999.244552 
102*1999.244552 102*1998.860578 
102*1998.860578 102*1998.476603 
102*1998.476603 102*1998.092629 
102*2017.675320 102*2017.291345 
102*2017.291345 102*2016.907371 
102*2016.907371 102*2016.523397 
102*2016.523397 102*2016.139422 
102*2016.139422 102*2015.755448 
102*2015.755448 102*2015.371474 
102*2015.371474 102*2014.987499 
102*2014.987499 102*2014.603525 
102*2014.603525 102*2014.219551 
102*2014.219551 102*2013.835576 
102*2013.835576 102*2013.451602 
102*2013.451602 102*2013.067628 
102*2013.067628 102*2012.683653 
102*2012.683653 102*2012.299679 
102*2012.299679 102*2011.915705 
102*2011.915705 102*2011.531730 
102*2011.531730 102*2011.147756 
102*2011.147756 102*2010.763782 
102*2010.763782 102*2010.379807 
102*2010.379807 102*2009.995833 
102*2009.995833 102*2009.611859 
102*2009.611859 102*2009.227884 
102*2009.227884 102*2008.843910 
102*2008.843910 102*2008.459936 
102*2008.459936 102*2008.075961 
102*2008.075961 102*2007.691987 
102*2007.691987 102*2007.308013 
102*2007.308013 102*2006.924039 
102*2006.924039 102*2006.540064 
102*2006.540064 102*2006.156090 
102*2006.156090 102*2005.772116 
102*2005.772116 102*2005.388141 
102*2005.388141 102*2005.004167 
102*2005.004167 102*2004.620193 
102*2004.620193 102*2004.236218 
102*2004.236218 102*2003.852244 
102*2003.852244 102*2003.468270 
102*2003.468270 102*2003.084295 
102*2003.084295 102*2002.700321 
102*2002.700321 102*2002.316347 
102*2002.316347 102*2001.932372 
102*2001.932372 102*2001.548398 
102*2001.548398 102*2001.164424 
102*2001.164424 102*2000.780449 
102*2000.780449 102*2000.396475 
102*2000.396475 102*2000.012501 
102*2000.012501 102*1999.628526 
102*1999.628526 102*1999.244552 
102*1999.244552 102*1998.860578 
102*1998.860578 102*1998.476603 
102*1998.476603 102*1998.092629 
102*2020.175320 102*2019.791345 
102*2019.791345 102*2019.407371 
102*2019.407371 102*2019.023397 
102*2019.023397 102*2018.639422 
102*2018.639422 102*2018.255448 
102*2018.255448 102*2017.871474 
102*2017.871474 102*2017.487499 
102*2017.487499 102*2017.103525 
102*2017.103525 102*2016.719551 
102*2016.719551 102*2016.335576 
102*2016.335576 102*2015.951602 
102*2015.951602 102*2015.567628 
102*2015.567628 102*2015.183653 
102*2015.183653 102*2014.799679 
102*2014.799679 102*2014.415705 
102*2014.415705 102*2014.031730 
102*2014.031730 102*2013.647756 
102*2013.647756 102*2013.263782 
102*2013.263782 102*2012.879807 
102*2012.879807 102*2012.495833 
102*2012.495833 102*2012.111859 
102*2012.111859 102*2011.727884 
102*2011.727884 102*2011.343910 
102*2011.343910 102*2010.959936 
102*2010.959936 102*2010.575961 
102*2010.575961 102*2010.191987 
102*2010.191987 102*2009.808013 
102*2009.808013 102*2009.424039 
102*2009.424039 102*2009.040064 
102*2009.040064 102*2008.656090 
102*2008.656090 102*2008.272116 
102*2008.272116 102*2007.888141 
102*2007.888141 102*2007.504167 
102*2007.504167 102*2007.120193 
102*2007.120193 102*2006.736218 
102*2006.736218 102*2006.352244 
102*2006.352244 102*2005.968270 
102*2005.968270 102*2005.584295 
102*2005.584295 102*2005.200321 
102*2005.200321 102*2004.816347 
102*2004.816347 102*2004.432372 
102*2004.432372 102*2004.048398 
102*2004.048398 102*2003.664424 
102*2003.664424 102*2003.280449 
102*2003.280449 102*2002.896475 
102*2002.896475 102*2002.512501 
102*2002.512501 102*2002.128526 
102*2002.128526 102*2001.744552 
102*2001.744552 102*2001.360578 
102*2001.360578 102*2000.976603 
102*2000.976603 102*2000.592629 
102*2020.175320 102*2019.791345 
102*2019.791345 102*2019.407371 
102*2019.407371 102*2019.023397 
102*2019.023397 102*2018.639422 
102*2018.639422 102*2018.255448 
102*2018.255448 102*2017.871474 
102*2017.871474 102*2017.487499 
102*2017.487499 102*2017.103525 
102*2017.103525 102*2016.719551 
102*2016.719551 102*2016.335576 
102*2016.335576 102*2015.951602 
102*2015.951602 102*2015.567628 
102*2015.567628 102*2015.183653 
102*2015.183653 102*2014.799679 
102*2014.799679 102*2014.415705 
102*2014.415705 102*2014.031730 
102*2014.031730 102*2013.647756 
102*2013.647756 102*2013.263782 
102*2013.263782 102*2012.879807 
102*2012.879807 102*2012.495833 
102*2012.495833 102*2012.111859 
102*2012.111859 102*2011.727884 
102*2011.727884 102*2011.343910 
102*2011.343910 102*2010.959936 
102*2010.959936 102*2010.575961 
102*2010.575961 102*2010.191987 
102*2010.191987 102*2009.808013 
102*2009.808013 102*2009.424039 
102*2009.424039 102*2009.040064 
102*2009.040064 102*2008.656090 
102*2008.656090 102*2008.272116 
102*2008.272116 102*2007.888141 
102*2007.888141 102*2007.504167 
102*2007.504167 102*2007.120193 
102*2007.120193 102*2006.736218 
102*2006.736218 102*2006.352244 
102*2006.352244 102*2005.968270 
102*2005.968270 102*2005.584295 
102*2005.584295 102*2005.200321 
102*2005.200321 102*2004.816347 
102*2004.816347 102*2004.432372 
102*2004.432372 102*2004.048398 
102*2004.048398 102*2003.664424 
102*2003.664424 102*2003.280449 
102*2003.280449 102*2002.896475 
102*2002.896475 102*2002.512501 
102*2002.512501 102*2002.128526 
102*2002.128526 102*2001.744552 
102*2001.744552 102*2001.360578 
102*2001.360578 102*2000.976603 
102*2000.976603 102*2000.592629 
102*2022.675320 102*2022.291345 
102*2022.291345 102*2021.907371 
102*2021.907371 102*2021.523397 
102*2021.523397 102*2021.139422 
102*2021.139422 102*2020.755448 
102*2020.755448 102*2020.371474 
102*2020.371474 102*2019.987499 
102*2019.987499 102*2019.603525 
102*2019.603525 102*2019.219551 
102*2019.219551 102*2018.835576 
102*2018.835576 102*2018.451602 
102*2018.451602 102*2018.067628 
102*2018.067628 102*2017.683653 
102*2017.683653 102*2017.299679 
102*2017.299679 102*2016.915705 
102*2016.915705 102*2016.531730 
102*2016.531730 102*2016.147756 
102*2016.147756 102*2015.763782 
102*2015.763782 102*2015.379807 
102*2015.379807 102*2014.995833 
102*2014.995833 102*2014.611859 
102*2014.611859 102*2014.227884 
102*2014.227884 102*2013.843910 
102*2013.843910 102*2013.459936 
102*2013.459936 102*2013.075961 
102*2013.075961 102*2012.691987 
102*2012.691987 102*2012.308013 
102*2012.308013 102*2011.924039 
102*2011.924039 102*2011.540064 
102*2011.540064 102*2011.156090 
102*2011.156090 102*2010.772116 
102*2010.772116 102*2010.388141 
102*2010.388141 102*2010.004167 
102*2010.004167 102*2009.620193 
102*2009.620193 102*2009.236218 
102*2009.236218 102*2008.852244 
102*2008.852244 102*2008.468270 
102*2008.468270 102*2008.084295 
102*2008.084295 102*2007.700321 
102*2007.700321 102*2007.316347 
102*2007.316347 102*2006.932372 
102*2006.932372 102*2006.548398 
102*2006.548398 102*2006.164424 
102*2006.164424 102*2005.780449 
102*2005.780449 102*2005.396475 
102*2005.396475 102*2005.012501 
102*2005.012501 102*2004.628526 
102*2004.628526 102*2004.244552 
102*2004.244552 102*2003.860578 
102*2003.860578 102*2003.476603 
102*2003.476603 102*2003.092629 
102*2022.675320 102*2022.291345 
102*2022.291345 102*2021.907371 
102*2021.907371 102*2021.523397 
102*2021.523397 102*2021.139422 
102*2021.139422 102*2020.755448 
102*2020.755448 102*2020.371474 
102*2020.371474 102*2019.987499 
102*2019.987499 102*2019.603525 
102*2019.603525 102*2019.219551 
102*2019.219551 102*2018.835576 
102*2018.835576 102*2018.451602 
102*2018.451602 102*2018.067628 
102*2018.067628 102*2017.683653 
102*2017.683653 102*2017.299679 
102*2017.299679 102*2016.915705 
102*2016.915705 102*2016.531730 
102*2016.531730 102*2016.147756 
102*2016.147756 102*2015.763782 
102*2015.763782 102*2015.379807 
102*2015.379807 102*2014.995833 
102*2014.995833 102*2014.611859 
102*2014.611859 102*2014.227884 
102*2014.227884 102*2013.843910 
102*2013.843910 102*2013.459936 
102*2013.459936 102*2013.075961 
102*2013.075961 102*2012.691987 
102*2012.691987 102*2012.308013 
102*2012.308013 102*2011.924039 
102*2011.924039 102*2011.540064 
102*2011.540064 102*2011.156090 
102*2011.156090 102*2010.772116 
102*2010.772116 102*2010.388141 
102*2010.388141 102*2010.004167 
102*2010.004167 102*2009.620193 
102*2009.620193 102*2009.236218 
102*2009.236218 102*2008.852244 
102*2008.852244 102*2008.468270 
102*2008.468270 102*2008.084295 
102*2008.084295 102*2007.700321 
102*2007.700321 102*2007.316347 
102*2007.316347 102*2006.932372 
102*2006.932372 102*2006.548398 
102*2006.548398 102*2006.164424 
102*2006.164424 102*2005.780449 
102*2005.780449 102*2005.396475 
102*2005.396475 102*2005.012501 
102*2005.012501 102*2004.628526 
102*2004.628526 102*2004.244552 
102*2004.244552 102*2003.860578 
102*2003.860578 102*2003.476603 
102*2003.476603 102*2003.092629 
102*2025.175320 102*2024.791345 
102*2024.791345 102*2024.407371 
102*2024.407371 102*2024.023397 
102*2024.023397 102*2023.639422 
102*2023.639422 102*2023.255448 
102*2023.255448 102*2022.871474 
102*2022.871474 102*2022.487499 
102*2022.487499 102*2022.103525 
102*2022.103525 102*2021.719551 
102*2021.719551 102*2021.335576 
102*2021.335576 102*2020.951602 
102*2020.951602 102*2020.567628 
102*2020.567628 102*2020.183653 
102*2020.183653 102*2019.799679 
102*2019.799679 102*2019.415705 
102*2019.415705 102*2019.031730 
102*2019.031730 102*2018.647756 
102*2018.647756 102*2018.263782 
102*2018.263782 102*2017.879807 
102*2017.879807 102*2017.495833 
102*2017.495833 102*2017.111859 
102*2017.111859 102*2016.727884 
102*2016.727884 102*2016.343910 
102*2016.343910 102*2015.959936 
102*2015.959936 102*2015.575961 
102*2015.575961 102*2015.191987 
102*2015.191987 102*2014.808013 
102*2014.808013 102*2014.424039 
102*2014.424039 102*2014.040064 
102*2014.040064 102*2013.656090 
102*2013.656090 102*2013.272116 
102*2013.272116 102*2012.888141 
102*2012.888141 102*2012.504167 
102*2012.504167 102*2012.120193 
102*2012.120193 102*2011.736218 
102*2011.736218 102*2011.352244 
102*2011.352244 102*2010.968270 
102*2010.968270 102*2010.584295 
102*2010.584295 102*2010.200321 
102*2010.200321 102*2009.816347 
102*2009.816347 102*2009.432372 
102*2009.432372 102*2009.048398 
102*2009.048398 102*2008.664424 
102*2008.664424 102*2008.280449 
102*2008.280449 102*2007.896475 
102*2007.896475 102*2007.512501 
102*2007.512501 102*2007.128526 
102*2007.128526 102*2006.744552 
102*2006.744552 102*2006.360578 
102*2006.360578 102*2005.976603 
102*2005.976603 102*2005.592629 
102*2025.175320 102*2024.791345 
102*2024.791345 102*2024.407371 
102*2024.407371 102*2024.023397 
102*2024.023397 102*2023.639422 
102*2023.639422 102*2023.255448 
102*2023.255448 102*2022.871474 
102*2022.871474 102*2022.487499 
102*2022.487499 102*2022.103525 
102*2022.103525 102*2021.719551 
102*2021.719551 102*2021.335576 
102*2021.335576 102*2020.951602 
102*2020.951602 102*2020.567628 
102*2020.567628 102*2020.183653 
102*2020.183653 102*2019.799679 
102*2019.799679 102*2019.415705 
102*2019.415705 102*2019.031730 
102*2019.031730 102*2018.647756 
102*2018.647756 102*2018.263782 
102*2018.263782 102*2017.879807 
102*2017.879807 102*2017.495833 
102*2017.495833 102*2017.111859 
102*2017.111859 102*2016.727884 
102*2016.727884 102*2016.343910 
102*2016.343910 102*2015.959936 
102*2015.959936 102*2015.575961 
102*2015.575961 102*2015.191987 
102*2015.191987 102*2014.808013 
102*2014.808013 102*2014.424039 
102*2014.424039 102*2014.040064 
102*2014.040064 102*2013.656090 
102*2013.656090 102*2013.272116 
102*2013.272116 102*2012.888141 
102*2012.888141 102*2012.504167 
102*2012.504167 102*2012.120193 
102*2012.120193 102*2011.736218 
102*2011.736218 102*2011.352244 
102*2011.352244 102*2010.968270 
102*2010.968270 102*2010.584295 
102*2010.584295 102*2010.200321 
102*2010.200321 102*2009.816347 
102*2009.816347 102*2009.432372 
102*2009.432372 102*2009.048398 
102*2009.048398 102*2008.664424 
102*2008.664424 102*2008.280449 
102*2008.280449 102*2007.896475 
102*2007.896475 102*2007.512501 
102*2007.512501 102*2007.128526 
102*2007.128526 102*2006.744552 
102*2006.744552 102*2006.360578 
102*2006.360578 102*2005.976603 
102*2005.976603 102*2005.592629 
102*2027.675320 102*2027.291345 
102*2027.291345 102*2026.907371 
102*2026.907371 102*2026.523397 
102*2026.523397 102*2026.139422 
102*2026.139422 102*2025.755448 
102*2025.755448 102*2025.371474 
102*2025.371474 102*2024.987499 
102*2024.987499 102*2024.603525 
102*2024.603525 102*2024.219551 
102*2024.219551 102*2023.835576 
102*2023.835576 102*2023.451602 
102*2023.451602 102*2023.067628 
102*2023.067628 102*2022.683653 
102*2022.683653 102*2022.299679 
102*2022.299679 102*2021.915705 
102*2021.915705 102*2021.531730 
102*2021.531730 102*2021.147756 
102*2021.147756 102*2020.763782 
102*2020.763782 102*2020.379807 
102*2020.379807 102*2019.995833 
102*2019.995833 102*2019.611859 
102*2019.611859 102*2019.227884 
102*2019.227884 102*2018.843910 
102*2018.843910 102*2018.459936 
102*2018.459936 102*2018.075961 
102*2018.075961 102*2017.691987 
102*2017.691987 102*2017.308013 
102*2017.308013 102*2016.924039 
102*2016.924039 102*2016.540064 
102*2016.540064 102*2016.156090 
102*2016.156090 102*2015.772116 
102*2015.772116 102*2015.388141 
102*2015.388141 102*2015.004167 
102*2015.004167 102*2014.620193 
102*2014.620193 102*2014.236218 
102*2014.236218 102*2013.852244 
102*2013.852244 102*2013.468270 
102*2013.468270 102*2013.084295 
102*2013.084295 102*2012.700321 
102*2012.700321 102*2012.316347 
102*2012.316347 102*2011.932372 
102*2011.932372 102*2011.548398 
102*2011.548398 102*2011.164424 
102*2011.164424 102*2010.780449 
102*2010.780449 102*2010.396475 
102*2010.396475 102*2010.012501 
102*2010.012501 102*2009.628526 
102*2009.628526 102*2009.244552 
102*2009.244552 102*2008.860578 
102*2008.860578 102*2008.476603 
102*2008.476603 102*2008.092629 
102*2027.675320 102*2027.291345 
102*2027.291345 102*2026.907371 
102*2026.907371 102*2026.523397 
102*2026.523397 102*2026.139422 
102*2026.139422 102*2025.755448 
102*2025.755448 102*2025.371474 
102*2025.371474 102*2024.987499 
102*2024.987499 102*2024.603525 
102*2024.603525 102*2024.219551 
102*2024.219551 102*2023.835576 
102*2023.835576 102*2023.451602 
102*2023.451602 102*2023.067628 
102*2023.067628 102*2022.683653 
102*2022.683653 102*2022.299679 
102*2022.299679 102*2021.915705 
102*2021.915705 102*2021.531730 
102*2021.531730 102*2021.147756 
102*2021.147756 102*2020.763782 
102*2020.763782 102*2020.379807 
102*2020.379807 102*2019.995833 
102*2019.995833 102*2019.611859 
102*2019.611859 102*2019.227884 
102*2019.227884 102*2018.843910 
102*2018.843910 102*2018.459936 
102*2018.459936 102*2018.075961 
102*2018.075961 102*2017.691987 
102*2017.691987 102*2017.308013 
102*2017.308013 102*2016.924039 
102*2016.924039 102*2016.540064 
102*2016.540064 102*2016.156090 
102*2016.156090 102*2015.772116 
102*2015.772116 102*2015.388141 
102*2015.388141 102*2015.004167 
102*2015.004167 102*2014.620193 
102*2014.620193 102*2014.236218 
102*2014.236218 102*2013.852244 
102*2013.852244 102*2013.468270 
102*2013.468270 102*2013.084295 
102*2013.084295 102*2012.700321 
102*2012.700321 102*2012.316347 
102*2012.316347 102*2011.932372 
102*2011.932372 102*2011.548398 
102*2011.548398 102*2011.164424 
102*2011.164424 102*2010.780449 
102*2010.780449 102*2010.396475 
102*2010.396475 102*2010.012501 
102*2010.012501 102*2009.628526 
102*2009.628526 102*2009.244552 
102*2009.244552 102*2008.860578 
102*2008.860578 102*2008.476603 
102*2008.476603 102*2008.092629 
102*2030.175320 102*2029.791345 
102*2029.791345 102*2029.407371 
102*2029.407371 102*2029.023397 
102*2029.023397 102*2028.639422 
102*2028.639422 102*2028.255448 
102*2028.255448 102*2027.871474 
102*2027.871474 102*2027.487499 
102*2027.487499 102*2027.103525 
102*2027.103525 102*2026.719551 
102*2026.719551 102*2026.335576 
102*2026.335576 102*2025.951602 
102*2025.951602 102*2025.567628 
102*2025.567628 102*2025.183653 
102*2025.183653 102*2024.799679 
102*2024.799679 102*2024.415705 
102*2024.415705 102*2024.031730 
102*2024.031730 102*2023.647756 
102*2023.647756 102*2023.263782 
102*2023.263782 102*2022.879807 
102*2022.879807 102*2022.495833 
102*2022.495833 102*2022.111859 
102*2022.111859 102*2021.727884 
102*2021.727884 102*2021.343910 
102*2021.343910 102*2020.959936 
102*2020.959936 102*2020.575961 
102*2020.575961 102*2020.191987 
102*2020.191987 102*2019.808013 
102*2019.808013 102*2019.424039 
102*2019.424039 102*2019.040064 
102*2019.040064 102*2018.656090 
102*2018.656090 102*2018.272116 
102*2018.272116 102*2017.888141 
102*2017.888141 102*2017.504167 
102*2017.504167 102*2017.120193 
102*2017.120193 102*2016.736218 
102*2016.736218 102*2016.352244 
102*2016.352244 102*2015.968270 
102*2015.968270 102*2015.584295 
102*2015.584295 102*2015.200321 
102*2015.200321 102*2014.816347 
102*2014.816347 102*2014.432372 
102*2014.432372 102*2014.048398 
102*2014.048398 102*2013.664424 
102*2013.664424 102*2013.280449 
102*2013.280449 102*2012.896475 
102*2012.896475 102*2012.512501 
102*2012.512501 102*2012.128526 
102*2012.128526 102*2011.744552 
102*2011.744552 102*2011.360578 
102*2011.360578 102*2010.976603 
102*2010.976603 102*2010.592629 
102*2030.175320 102*2029.791345 
102*2029.791345 102*2029.407371 
102*2029.407371 102*2029.023397 
102*2029.023397 102*2028.639422 
102*2028.639422 102*2028.255448 
102*2028.255448 102*2027.871474 
102*2027.871474 102*2027.487499 
102*2027.487499 102*2027.103525 
102*2027.103525 102*2026.719551 
102*2026.719551 102*2026.335576 
102*2026.335576 102*2025.951602 
102*2025.951602 102*2025.567628 
102*2025.567628 102*2025.183653 
102*2025.183653 102*2024.799679 
102*2024.799679 102*2024.415705 
102*2024.415705 102*2024.031730 
102*2024.031730 102*2023.647756 
102*2023.647756 102*2023.263782 
102*2023.263782 102*2022.879807 
102*2022.879807 102*2022.495833 
102*2022.495833 102*2022.111859 
102*2022.111859 102*2021.727884 
102*2021.727884 102*2021.343910 
102*2021.343910 102*2020.959936 
102*2020.959936 102*2020.575961 
102*2020.575961 102*2020.191987 
102*2020.191987 102*2019.808013 
102*2019.808013 102*2019.424039 
102*2019.424039 102*2019.040064 
102*2019.040064 102*2018.656090 
102*2018.656090 102*2018.272116 
102*2018.272116 102*2017.888141 
102*2017.888141 102*2017.504167 
102*2017.504167 102*2017.120193 
102*2017.120193 102*2016.736218 
102*2016.736218 102*2016.352244 
102*2016.352244 102*2015.968270 
102*2015.968270 102*2015.584295 
102*2015.584295 102*2015.200321 
102*2015.200321 102*2014.816347 
102*2014.816347 102*2014.432372 
102*2014.432372 102*2014.048398 
102*2014.048398 102*2013.664424 
102*2013.664424 102*2013.280449 
102*2013.280449 102*2012.896475 
102*2012.896475 102*2012.512501 
102*2012.512501 102*2012.128526 
102*2012.128526 102*2011.744552 
102*2011.744552 102*2011.360578 
102*2011.360578 102*2010.976603 
102*2010.976603 102*2010.592629 
102*2032.675320 102*2032.291345 
102*2032.291345 102*2031.907371 
102*2031.907371 102*2031.523397 
102*2031.523397 102*2031.139422 
102*2031.139422 102*2030.755448 
102*2030.755448 102*2030.371474 
102*2030.371474 102*2029.987499 
102*2029.987499 102*2029.603525 
102*2029.603525 102*2029.219551 
102*2029.219551 102*2028.835576 
102*2028.835576 102*2028.451602 
102*2028.451602 102*2028.067628 
102*2028.067628 102*2027.683653 
102*2027.683653 102*2027.299679 
102*2027.299679 102*2026.915705 
102*2026.915705 102*2026.531730 
102*2026.531730 102*2026.147756 
102*2026.147756 102*2025.763782 
102*2025.763782 102*2025.379807 
102*2025.379807 102*2024.995833 
102*2024.995833 102*2024.611859 
102*2024.611859 102*2024.227884 
102*2024.227884 102*2023.843910 
102*2023.843910 102*2023.459936 
102*2023.459936 102*2023.075961 
102*2023.075961 102*2022.691987 
102*2022.691987 102*2022.308013 
102*2022.308013 102*2021.924039 
102*2021.924039 102*2021.540064 
102*2021.540064 102*2021.156090 
102*2021.156090 102*2020.772116 
102*2020.772116 102*2020.388141 
102*2020.388141 102*2020.004167 
102*2020.004167 102*2019.620193 
102*2019.620193 102*2019.236218 
102*2019.236218 102*2018.852244 
102*2018.852244 102*2018.468270 
102*2018.468270 102*2018.084295 
102*2018.084295 102*2017.700321 
102*2017.700321 102*2017.316347 
102*2017.316347 102*2016.932372 