ZCORN
102*2110.141272 102*2105.984997 
102*2105.984997 102*2101.828723 
102*2101.828723 102*2097.672449 
102*2097.672449 102*2093.516174 
102*2093.516174 102*2089.359900 
102*2089.359900 102*2085.203625 
102*2085.203625 102*2081.047351 
102*2081.047351 102*2076.891077 
102*2076.891077 102*2072.734802 
102*2072.734802 102*2068.578528 
102*2068.578528 102*2064.422253 
102*2064.422253 102*2060.265979 
102*2060.265979 102*2056.109705 
102*2056.109705 102*2051.953430 
102*2051.953430 102*2047.797156 
102*2047.797156 102*2043.640881 
102*2043.640881 102*2039.484607 
102*2039.484607 102*2035.328332 
102*2035.328332 102*2031.172058 
102*2031.172058 102*2027.015784 
102*2027.015784 102*2022.859509 
102*2022.859509 102*2018.703235 
102*2018.703235 102*2014.546960 
102*2014.546960 102*2010.390686 
102*2010.390686 102*2006.234412 
102*2006.234412 102*2002.078137 
102*2002.078137 102*1997.921863 
102*1997.921863 102*1993.765588 
102*1993.765588 102*1989.609314 
102*1989.609314 102*1985.453040 
102*1985.453040 102*1981.296765 
102*1981.296765 102*1977.140491 
102*1977.140491 102*1972.984216 
102*1972.984216 102*1968.827942 
102*1968.827942 102*1964.671668 
102*1964.671668 102*1960.515393 
102*1960.515393 102*1956.359119 
102*1956.359119 102*1952.202844 
102*1952.202844 102*1948.046570 
102*1948.046570 102*1943.890295 
102*1943.890295 102*1939.734021 
102*1939.734021 102*1935.577747 
102*1935.577747 102*1931.421472 
102*1931.421472 102*1927.265198 
102*1927.265198 102*1923.108923 
102*1923.108923 102*1918.952649 
102*1918.952649 102*1914.796375 
102*1914.796375 102*1910.640100 
102*1910.640100 102*1906.483826 
102*1906.483826 102*1902.327551 
102*1902.327551 102*1898.171277 
102*2112.641272 102*2108.484997 
102*2108.484997 102*2104.328723 
102*2104.328723 102*2100.172449 
102*2100.172449 102*2096.016174 
102*2096.016174 102*2091.859900 
102*2091.859900 102*2087.703625 
102*2087.703625 102*2083.547351 
102*2083.547351 102*2079.391077 
102*2079.391077 102*2075.234802 
102*2075.234802 102*2071.078528 
102*2071.078528 102*2066.922253 
102*2066.922253 102*2062.765979 
102*2062.765979 102*2058.609705 
102*2058.609705 102*2054.453430 
102*2054.453430 102*2050.297156 
102*2050.297156 102*2046.140881 
102*2046.140881 102*2041.984607 
102*2041.984607 102*2037.828332 
102*2037.828332 102*2033.672058 
102*2033.672058 102*2029.515784 
102*2029.515784 102*2025.359509 
102*2025.359509 102*2021.203235 
102*2021.203235 102*2017.046960 
102*2017.046960 102*2012.890686 
102*2012.890686 102*2008.734412 
102*2008.734412 102*2004.578137 
102*2004.578137 102*2000.421863 
102*2000.421863 102*1996.265588 
102*1996.265588 102*1992.109314 
102*1992.109314 102*1987.953040 
102*1987.953040 102*1983.796765 
102*1983.796765 102*1979.640491 
102*1979.640491 102*1975.484216 
102*1975.484216 102*1971.327942 
102*1971.327942 102*1967.171668 
102*1967.171668 102*1963.015393 
102*1963.015393 102*1958.859119 
102*1958.859119 102*1954.702844 
102*1954.702844 102*1950.546570 
102*1950.546570 102*1946.390295 
102*1946.390295 102*1942.234021 
102*1942.234021 102*1938.077747 
102*1938.077747 102*1933.921472 
102*1933.921472 102*1929.765198 
102*1929.765198 102*1925.608923 
102*1925.608923 102*1921.452649 
102*1921.452649 102*1917.296375 
102*1917.296375 102*1913.140100 
102*1913.140100 102*1908.983826 
102*1908.983826 102*1904.827551 
102*1904.827551 102*1900.671277 
102*2112.641272 102*2108.484997 
102*2108.484997 102*2104.328723 
102*2104.328723 102*2100.172449 
102*2100.172449 102*2096.016174 
102*2096.016174 102*2091.859900 
102*2091.859900 102*2087.703625 
102*2087.703625 102*2083.547351 
102*2083.547351 102*2079.391077 
102*2079.391077 102*2075.234802 
102*2075.234802 102*2071.078528 
102*2071.078528 102*2066.922253 
102*2066.922253 102*2062.765979 
102*2062.765979 102*2058.609705 
102*2058.609705 102*2054.453430 
102*2054.453430 102*2050.297156 
102*2050.297156 102*2046.140881 
102*2046.140881 102*2041.984607 
102*2041.984607 102*2037.828332 
102*2037.828332 102*2033.672058 
102*2033.672058 102*2029.515784 
102*2029.515784 102*2025.359509 
102*2025.359509 102*2021.203235 
102*2021.203235 102*2017.046960 
102*2017.046960 102*2012.890686 
102*2012.890686 102*2008.734412 
102*2008.734412 102*2004.578137 
102*2004.578137 102*2000.421863 
102*2000.421863 102*1996.265588 
102*1996.265588 102*1992.109314 
102*1992.109314 102*1987.953040 
102*1987.953040 102*1983.796765 
102*1983.796765 102*1979.640491 
102*1979.640491 102*1975.484216 
102*1975.484216 102*1971.327942 
102*1971.327942 102*1967.171668 
102*1967.171668 102*1963.015393 
102*1963.015393 102*1958.859119 
102*1958.859119 102*1954.702844 
102*1954.702844 102*1950.546570 
102*1950.546570 102*1946.390295 
102*1946.390295 102*1942.234021 
102*1942.234021 102*1938.077747 
102*1938.077747 102*1933.921472 
102*1933.921472 102*1929.765198 
102*1929.765198 102*1925.608923 
102*1925.608923 102*1921.452649 
102*1921.452649 102*1917.296375 
102*1917.296375 102*1913.140100 
102*1913.140100 102*1908.983826 
102*1908.983826 102*1904.827551 
102*1904.827551 102*1900.671277 
102*2115.141272 102*2110.984997 
102*2110.984997 102*2106.828723 
102*2106.828723 102*2102.672449 
102*2102.672449 102*2098.516174 
102*2098.516174 102*2094.359900 
102*2094.359900 102*2090.203625 
102*2090.203625 102*2086.047351 
102*2086.047351 102*2081.891077 
102*2081.891077 102*2077.734802 
102*2077.734802 102*2073.578528 
102*2073.578528 102*2069.422253 
102*2069.422253 102*2065.265979 
102*2065.265979 102*2061.109705 
102*2061.109705 102*2056.953430 
102*2056.953430 102*2052.797156 
102*2052.797156 102*2048.640881 
102*2048.640881 102*2044.484607 
102*2044.484607 102*2040.328332 
102*2040.328332 102*2036.172058 
102*2036.172058 102*2032.015784 
102*2032.015784 102*2027.859509 
102*2027.859509 102*2023.703235 
102*2023.703235 102*2019.546960 
102*2019.546960 102*2015.390686 
102*2015.390686 102*2011.234412 
102*2011.234412 102*2007.078137 
102*2007.078137 102*2002.921863 
102*2002.921863 102*1998.765588 
102*1998.765588 102*1994.609314 
102*1994.609314 102*1990.453040 
102*1990.453040 102*1986.296765 
102*1986.296765 102*1982.140491 
102*1982.140491 102*1977.984216 
102*1977.984216 102*1973.827942 
102*1973.827942 102*1969.671668 
102*1969.671668 102*1965.515393 
102*1965.515393 102*1961.359119 
102*1961.359119 102*1957.202844 
102*1957.202844 102*1953.046570 
102*1953.046570 102*1948.890295 
102*1948.890295 102*1944.734021 
102*1944.734021 102*1940.577747 
102*1940.577747 102*1936.421472 
102*1936.421472 102*1932.265198 
102*1932.265198 102*1928.108923 
102*1928.108923 102*1923.952649 
102*1923.952649 102*1919.796375 
102*1919.796375 102*1915.640100 
102*1915.640100 102*1911.483826 
102*1911.483826 102*1907.327551 
102*1907.327551 102*1903.171277 
102*2115.141272 102*2110.984997 
102*2110.984997 102*2106.828723 
102*2106.828723 102*2102.672449 
102*2102.672449 102*2098.516174 
102*2098.516174 102*2094.359900 
102*2094.359900 102*2090.203625 
102*2090.203625 102*2086.047351 
102*2086.047351 102*2081.891077 
102*2081.891077 102*2077.734802 
102*2077.734802 102*2073.578528 
102*2073.578528 102*2069.422253 
102*2069.422253 102*2065.265979 
102*2065.265979 102*2061.109705 
102*2061.109705 102*2056.953430 
102*2056.953430 102*2052.797156 
102*2052.797156 102*2048.640881 
102*2048.640881 102*2044.484607 
102*2044.484607 102*2040.328332 
102*2040.328332 102*2036.172058 
102*2036.172058 102*2032.015784 
102*2032.015784 102*2027.859509 
102*2027.859509 102*2023.703235 
102*2023.703235 102*2019.546960 
102*2019.546960 102*2015.390686 
102*2015.390686 102*2011.234412 
102*2011.234412 102*2007.078137 
102*2007.078137 102*2002.921863 
102*2002.921863 102*1998.765588 
102*1998.765588 102*1994.609314 
102*1994.609314 102*1990.453040 
102*1990.453040 102*1986.296765 
102*1986.296765 102*1982.140491 
102*1982.140491 102*1977.984216 
102*1977.984216 102*1973.827942 
102*1973.827942 102*1969.671668 
102*1969.671668 102*1965.515393 
102*1965.515393 102*1961.359119 
102*1961.359119 102*1957.202844 
102*1957.202844 102*1953.046570 
102*1953.046570 102*1948.890295 
102*1948.890295 102*1944.734021 
102*1944.734021 102*1940.577747 
102*1940.577747 102*1936.421472 
102*1936.421472 102*1932.265198 
102*1932.265198 102*1928.108923 
102*1928.108923 102*1923.952649 
102*1923.952649 102*1919.796375 
102*1919.796375 102*1915.640100 
102*1915.640100 102*1911.483826 
102*1911.483826 102*1907.327551 
102*1907.327551 102*1903.171277 
102*2117.641272 102*2113.484997 
102*2113.484997 102*2109.328723 
102*2109.328723 102*2105.172449 
102*2105.172449 102*2101.016174 
102*2101.016174 102*2096.859900 
102*2096.859900 102*2092.703625 
102*2092.703625 102*2088.547351 
102*2088.547351 102*2084.391077 
102*2084.391077 102*2080.234802 
102*2080.234802 102*2076.078528 
102*2076.078528 102*2071.922253 
102*2071.922253 102*2067.765979 
102*2067.765979 102*2063.609705 
102*2063.609705 102*2059.453430 
102*2059.453430 102*2055.297156 
102*2055.297156 102*2051.140881 
102*2051.140881 102*2046.984607 
102*2046.984607 102*2042.828332 
102*2042.828332 102*2038.672058 
102*2038.672058 102*2034.515784 
102*2034.515784 102*2030.359509 
102*2030.359509 102*2026.203235 
102*2026.203235 102*2022.046960 
102*2022.046960 102*2017.890686 
102*2017.890686 102*2013.734412 
102*2013.734412 102*2009.578137 
102*2009.578137 102*2005.421863 
102*2005.421863 102*2001.265588 
102*2001.265588 102*1997.109314 
102*1997.109314 102*1992.953040 
102*1992.953040 102*1988.796765 
102*1988.796765 102*1984.640491 
102*1984.640491 102*1980.484216 
102*1980.484216 102*1976.327942 
102*1976.327942 102*1972.171668 
102*1972.171668 102*1968.015393 
102*1968.015393 102*1963.859119 
102*1963.859119 102*1959.702844 
102*1959.702844 102*1955.546570 
102*1955.546570 102*1951.390295 
102*1951.390295 102*1947.234021 
102*1947.234021 102*1943.077747 
102*1943.077747 102*1938.921472 
102*1938.921472 102*1934.765198 
102*1934.765198 102*1930.608923 
102*1930.608923 102*1926.452649 
102*1926.452649 102*1922.296375 
102*1922.296375 102*1918.140100 
102*1918.140100 102*1913.983826 
102*1913.983826 102*1909.827551 
102*1909.827551 102*1905.671277 
102*2117.641272 102*2113.484997 
102*2113.484997 102*2109.328723 
102*2109.328723 102*2105.172449 
102*2105.172449 102*2101.016174 
102*2101.016174 102*2096.859900 
102*2096.859900 102*2092.703625 
102*2092.703625 102*2088.547351 
102*2088.547351 102*2084.391077 
102*2084.391077 102*2080.234802 
102*2080.234802 102*2076.078528 
102*2076.078528 102*2071.922253 
102*2071.922253 102*2067.765979 
102*2067.765979 102*2063.609705 
102*2063.609705 102*2059.453430 
102*2059.453430 102*2055.297156 
102*2055.297156 102*2051.140881 
102*2051.140881 102*2046.984607 
102*2046.984607 102*2042.828332 
102*2042.828332 102*2038.672058 
102*2038.672058 102*2034.515784 
102*2034.515784 102*2030.359509 
102*2030.359509 102*2026.203235 
102*2026.203235 102*2022.046960 
102*2022.046960 102*2017.890686 
102*2017.890686 102*2013.734412 
102*2013.734412 102*2009.578137 
102*2009.578137 102*2005.421863 
102*2005.421863 102*2001.265588 
102*2001.265588 102*1997.109314 
102*1997.109314 102*1992.953040 
102*1992.953040 102*1988.796765 
102*1988.796765 102*1984.640491 
102*1984.640491 102*1980.484216 
102*1980.484216 102*1976.327942 
102*1976.327942 102*1972.171668 
102*1972.171668 102*1968.015393 
102*1968.015393 102*1963.859119 
102*1963.859119 102*1959.702844 
102*1959.702844 102*1955.546570 
102*1955.546570 102*1951.390295 
102*1951.390295 102*1947.234021 
102*1947.234021 102*1943.077747 
102*1943.077747 102*1938.921472 
102*1938.921472 102*1934.765198 
102*1934.765198 102*1930.608923 
102*1930.608923 102*1926.452649 
102*1926.452649 102*1922.296375 
102*1922.296375 102*1918.140100 
102*1918.140100 102*1913.983826 
102*1913.983826 102*1909.827551 
102*1909.827551 102*1905.671277 
102*2120.141272 102*2115.984997 
102*2115.984997 102*2111.828723 
102*2111.828723 102*2107.672449 
102*2107.672449 102*2103.516174 
102*2103.516174 102*2099.359900 
102*2099.359900 102*2095.203625 
102*2095.203625 102*2091.047351 
102*2091.047351 102*2086.891077 
102*2086.891077 102*2082.734802 
102*2082.734802 102*2078.578528 
102*2078.578528 102*2074.422253 
102*2074.422253 102*2070.265979 
102*2070.265979 102*2066.109705 
102*2066.109705 102*2061.953430 
102*2061.953430 102*2057.797156 
102*2057.797156 102*2053.640881 
102*2053.640881 102*2049.484607 
102*2049.484607 102*2045.328332 
102*2045.328332 102*2041.172058 
102*2041.172058 102*2037.015784 
102*2037.015784 102*2032.859509 
102*2032.859509 102*2028.703235 
102*2028.703235 102*2024.546960 
102*2024.546960 102*2020.390686 
102*2020.390686 102*2016.234412 
102*2016.234412 102*2012.078137 
102*2012.078137 102*2007.921863 
102*2007.921863 102*2003.765588 
102*2003.765588 102*1999.609314 
102*1999.609314 102*1995.453040 
102*1995.453040 102*1991.296765 
102*1991.296765 102*1987.140491 
102*1987.140491 102*1982.984216 
102*1982.984216 102*1978.827942 
102*1978.827942 102*1974.671668 
102*1974.671668 102*1970.515393 
102*1970.515393 102*1966.359119 
102*1966.359119 102*1962.202844 
102*1962.202844 102*1958.046570 
102*1958.046570 102*1953.890295 
102*1953.890295 102*1949.734021 
102*1949.734021 102*1945.577747 
102*1945.577747 102*1941.421472 
102*1941.421472 102*1937.265198 
102*1937.265198 102*1933.108923 
102*1933.108923 102*1928.952649 
102*1928.952649 102*1924.796375 
102*1924.796375 102*1920.640100 
102*1920.640100 102*1916.483826 
102*1916.483826 102*1912.327551 
102*1912.327551 102*1908.171277 
102*2120.141272 102*2115.984997 
102*2115.984997 102*2111.828723 
102*2111.828723 102*2107.672449 
102*2107.672449 102*2103.516174 
102*2103.516174 102*2099.359900 
102*2099.359900 102*2095.203625 
102*2095.203625 102*2091.047351 
102*2091.047351 102*2086.891077 
102*2086.891077 102*2082.734802 
102*2082.734802 102*2078.578528 
102*2078.578528 102*2074.422253 
102*2074.422253 102*2070.265979 
102*2070.265979 102*2066.109705 
102*2066.109705 102*2061.953430 
102*2061.953430 102*2057.797156 
102*2057.797156 102*2053.640881 
102*2053.640881 102*2049.484607 
102*2049.484607 102*2045.328332 
102*2045.328332 102*2041.172058 
102*2041.172058 102*2037.015784 
102*2037.015784 102*2032.859509 
102*2032.859509 102*2028.703235 
102*2028.703235 102*2024.546960 
102*2024.546960 102*2020.390686 
102*2020.390686 102*2016.234412 
102*2016.234412 102*2012.078137 
102*2012.078137 102*2007.921863 
102*2007.921863 102*2003.765588 
102*2003.765588 102*1999.609314 
102*1999.609314 102*1995.453040 
102*1995.453040 102*1991.296765 
102*1991.296765 102*1987.140491 
102*1987.140491 102*1982.984216 
102*1982.984216 102*1978.827942 
102*1978.827942 102*1974.671668 
102*1974.671668 102*1970.515393 
102*1970.515393 102*1966.359119 
102*1966.359119 102*1962.202844 
102*1962.202844 102*1958.046570 
102*1958.046570 102*1953.890295 
102*1953.890295 102*1949.734021 
102*1949.734021 102*1945.577747 
102*1945.577747 102*1941.421472 
102*1941.421472 102*1937.265198 
102*1937.265198 102*1933.108923 
102*1933.108923 102*1928.952649 
102*1928.952649 102*1924.796375 
102*1924.796375 102*1920.640100 
102*1920.640100 102*1916.483826 
102*1916.483826 102*1912.327551 
102*1912.327551 102*1908.171277 
102*2122.641272 102*2118.484997 
102*2118.484997 102*2114.328723 
102*2114.328723 102*2110.172449 
102*2110.172449 102*2106.016174 
102*2106.016174 102*2101.859900 
102*2101.859900 102*2097.703625 
102*2097.703625 102*2093.547351 
102*2093.547351 102*2089.391077 
102*2089.391077 102*2085.234802 
102*2085.234802 102*2081.078528 
102*2081.078528 102*2076.922253 
102*2076.922253 102*2072.765979 
102*2072.765979 102*2068.609705 
102*2068.609705 102*2064.453430 
102*2064.453430 102*2060.297156 
102*2060.297156 102*2056.140881 
102*2056.140881 102*2051.984607 
102*2051.984607 102*2047.828332 
102*2047.828332 102*2043.672058 
102*2043.672058 102*2039.515784 
102*2039.515784 102*2035.359509 
102*2035.359509 102*2031.203235 
102*2031.203235 102*2027.046960 
102*2027.046960 102*2022.890686 
102*2022.890686 102*2018.734412 
102*2018.734412 102*2014.578137 
102*2014.578137 102*2010.421863 
102*2010.421863 102*2006.265588 
102*2006.265588 102*2002.109314 
102*2002.109314 102*1997.953040 
102*1997.953040 102*1993.796765 
102*1993.796765 102*1989.640491 
102*1989.640491 102*1985.484216 
102*1985.484216 102*1981.327942 
102*1981.327942 102*1977.171668 
102*1977.171668 102*1973.015393 
102*1973.015393 102*1968.859119 
102*1968.859119 102*1964.702844 
102*1964.702844 102*1960.546570 
102*1960.546570 102*1956.390295 
102*1956.390295 102*1952.234021 
102*1952.234021 102*1948.077747 
102*1948.077747 102*1943.921472 
102*1943.921472 102*1939.765198 
102*1939.765198 102*1935.608923 
102*1935.608923 102*1931.452649 
102*1931.452649 102*1927.296375 
102*1927.296375 102*1923.140100 
102*1923.140100 102*1918.983826 
102*1918.983826 102*1914.827551 
102*1914.827551 102*1910.671277 
102*2122.641272 102*2118.484997 
102*2118.484997 102*2114.328723 
102*2114.328723 102*2110.172449 
102*2110.172449 102*2106.016174 
102*2106.016174 102*2101.859900 
102*2101.859900 102*2097.703625 
102*2097.703625 102*2093.547351 
102*2093.547351 102*2089.391077 
102*2089.391077 102*2085.234802 
102*2085.234802 102*2081.078528 
102*2081.078528 102*2076.922253 
102*2076.922253 102*2072.765979 
102*2072.765979 102*2068.609705 
102*2068.609705 102*2064.453430 
102*2064.453430 102*2060.297156 
102*2060.297156 102*2056.140881 
102*2056.140881 102*2051.984607 
102*2051.984607 102*2047.828332 
102*2047.828332 102*2043.672058 
102*2043.672058 102*2039.515784 
102*2039.515784 102*2035.359509 
102*2035.359509 102*2031.203235 
102*2031.203235 102*2027.046960 
102*2027.046960 102*2022.890686 
102*2022.890686 102*2018.734412 
102*2018.734412 102*2014.578137 
102*2014.578137 102*2010.421863 
102*2010.421863 102*2006.265588 
102*2006.265588 102*2002.109314 
102*2002.109314 102*1997.953040 
102*1997.953040 102*1993.796765 
102*1993.796765 102*1989.640491 
102*1989.640491 102*1985.484216 
102*1985.484216 102*1981.327942 
102*1981.327942 102*1977.171668 
102*1977.171668 102*1973.015393 
102*1973.015393 102*1968.859119 
102*1968.859119 102*1964.702844 
102*1964.702844 102*1960.546570 
102*1960.546570 102*1956.390295 
102*1956.390295 102*1952.234021 
102*1952.234021 102*1948.077747 
102*1948.077747 102*1943.921472 
102*1943.921472 102*1939.765198 
102*1939.765198 102*1935.608923 
102*1935.608923 102*1931.452649 
102*1931.452649 102*1927.296375 
102*1927.296375 102*1923.140100 
102*1923.140100 102*1918.983826 
102*1918.983826 102*1914.827551 
102*1914.827551 102*1910.671277 
102*2125.141272 102*2120.984997 
102*2120.984997 102*2116.828723 
102*2116.828723 102*2112.672449 
102*2112.672449 102*2108.516174 
102*2108.516174 102*2104.359900 
102*2104.359900 102*2100.203625 
102*2100.203625 102*2096.047351 
102*2096.047351 102*2091.891077 
102*2091.891077 102*2087.734802 
102*2087.734802 102*2083.578528 
102*2083.578528 102*2079.422253 
102*2079.422253 102*2075.265979 
102*2075.265979 102*2071.109705 
102*2071.109705 102*2066.953430 
102*2066.953430 102*2062.797156 
102*2062.797156 102*2058.640881 
102*2058.640881 102*2054.484607 
102*2054.484607 102*2050.328332 
102*2050.328332 102*2046.172058 
102*2046.172058 102*2042.015784 
102*2042.015784 102*2037.859509 
102*2037.859509 102*2033.703235 
102*2033.703235 102*2029.546960 
102*2029.546960 102*2025.390686 
102*2025.390686 102*2021.234412 
102*2021.234412 102*2017.078137 
102*2017.078137 102*2012.921863 
102*2012.921863 102*2008.765588 
102*2008.765588 102*2004.609314 
102*2004.609314 102*2000.453040 
102*2000.453040 102*1996.296765 
102*1996.296765 102*1992.140491 
102*1992.140491 102*1987.984216 
102*1987.984216 102*1983.827942 
102*1983.827942 102*1979.671668 
102*1979.671668 102*1975.515393 
102*1975.515393 102*1971.359119 
102*1971.359119 102*1967.202844 
102*1967.202844 102*1963.046570 
102*1963.046570 102*1958.890295 
102*1958.890295 102*1954.734021 
102*1954.734021 102*1950.577747 
102*1950.577747 102*1946.421472 
102*1946.421472 102*1942.265198 
102*1942.265198 102*1938.108923 
102*1938.108923 102*1933.952649 
102*1933.952649 102*1929.796375 
102*1929.796375 102*1925.640100 
102*1925.640100 102*1921.483826 
102*1921.483826 102*1917.327551 
102*1917.327551 102*1913.171277 
102*2125.141272 102*2120.984997 
102*2120.984997 102*2116.828723 
102*2116.828723 102*2112.672449 
102*2112.672449 102*2108.516174 
102*2108.516174 102*2104.359900 
102*2104.359900 102*2100.203625 
102*2100.203625 102*2096.047351 
102*2096.047351 102*2091.891077 
102*2091.891077 102*2087.734802 
102*2087.734802 102*2083.578528 
102*2083.578528 102*2079.422253 
102*2079.422253 102*2075.265979 
102*2075.265979 102*2071.109705 
102*2071.109705 102*2066.953430 
102*2066.953430 102*2062.797156 
102*2062.797156 102*2058.640881 
102*2058.640881 102*2054.484607 
102*2054.484607 102*2050.328332 
102*2050.328332 102*2046.172058 
102*2046.172058 102*2042.015784 
102*2042.015784 102*2037.859509 
102*2037.859509 102*2033.703235 
102*2033.703235 102*2029.546960 
102*2029.546960 102*2025.390686 
102*2025.390686 102*2021.234412 
102*2021.234412 102*2017.078137 
102*2017.078137 102*2012.921863 
102*2012.921863 102*2008.765588 
102*2008.765588 102*2004.609314 
102*2004.609314 102*2000.453040 
102*2000.453040 102*1996.296765 
102*1996.296765 102*1992.140491 
102*1992.140491 102*1987.984216 
102*1987.984216 102*1983.827942 
102*1983.827942 102*1979.671668 
102*1979.671668 102*1975.515393 
102*1975.515393 102*1971.359119 
102*1971.359119 102*1967.202844 
102*1967.202844 102*1963.046570 
102*1963.046570 102*1958.890295 
102*1958.890295 102*1954.734021 
102*1954.734021 102*1950.577747 
102*1950.577747 102*1946.421472 
102*1946.421472 102*1942.265198 
102*1942.265198 102*1938.108923 
102*1938.108923 102*1933.952649 
102*1933.952649 102*1929.796375 
102*1929.796375 102*1925.640100 
102*1925.640100 102*1921.483826 
102*1921.483826 102*1917.327551 
102*1917.327551 102*1913.171277 
102*2127.641272 102*2123.484997 
102*2123.484997 102*2119.328723 
102*2119.328723 102*2115.172449 
102*2115.172449 102*2111.016174 
102*2111.016174 102*2106.859900 
102*2106.859900 102*2102.703625 
102*2102.703625 102*2098.547351 
102*2098.547351 102*2094.391077 
102*2094.391077 102*2090.234802 
102*2090.234802 102*2086.078528 
102*2086.078528 102*2081.922253 
102*2081.922253 102*2077.765979 
102*2077.765979 102*2073.609705 
102*2073.609705 102*2069.453430 
102*2069.453430 102*2065.297156 
102*2065.297156 102*2061.140881 
102*2061.140881 102*2056.984607 
102*2056.984607 102*2052.828332 
102*2052.828332 102*2048.672058 
102*2048.672058 102*2044.515784 
102*2044.515784 102*2040.359509 
102*2040.359509 102*2036.203235 
102*2036.203235 102*2032.046960 
102*2032.046960 102*2027.890686 
102*2027.890686 102*2023.734412 
102*2023.734412 102*2019.578137 
102*2019.578137 102*2015.421863 
102*2015.421863 102*2011.265588 
102*2011.265588 102*2007.109314 
102*2007.109314 102*2002.953040 
102*2002.953040 102*1998.796765 
102*1998.796765 102*1994.640491 
102*1994.640491 102*1990.484216 
102*1990.484216 102*1986.327942 
102*1986.327942 102*1982.171668 
102*1982.171668 102*1978.015393 
102*1978.015393 102*1973.859119 
102*1973.859119 102*1969.702844 
102*1969.702844 102*1965.546570 
102*1965.546570 102*1961.390295 
102*1961.390295 102*1957.234021 
102*1957.234021 102*1953.077747 
102*1953.077747 102*1948.921472 
102*1948.921472 102*1944.765198 
102*1944.765198 102*1940.608923 
102*1940.608923 102*1936.452649 
102*1936.452649 102*1932.296375 
102*1932.296375 102*1928.140100 
102*1928.140100 102*1923.983826 
102*1923.983826 102*1919.827551 
102*1919.827551 102*1915.671277 
102*2127.641272 102*2123.484997 
102*2123.484997 102*2119.328723 
102*2119.328723 102*2115.172449 
102*2115.172449 102*2111.016174 
102*2111.016174 102*2106.859900 
102*2106.859900 102*2102.703625 
102*2102.703625 102*2098.547351 
102*2098.547351 102*2094.391077 
102*2094.391077 102*2090.234802 
102*2090.234802 102*2086.078528 
102*2086.078528 102*2081.922253 
102*2081.922253 102*2077.765979 
102*2077.765979 102*2073.609705 
102*2073.609705 102*2069.453430 
102*2069.453430 102*2065.297156 
102*2065.297156 102*2061.140881 
102*2061.140881 102*2056.984607 
102*2056.984607 102*2052.828332 
102*2052.828332 102*2048.672058 
102*2048.672058 102*2044.515784 
102*2044.515784 102*2040.359509 
102*2040.359509 102*2036.203235 
102*2036.203235 102*2032.046960 
102*2032.046960 102*2027.890686 
102*2027.890686 102*2023.734412 
102*2023.734412 102*2019.578137 
102*2019.578137 102*2015.421863 
102*2015.421863 102*2011.265588 
102*2011.265588 102*2007.109314 
102*2007.109314 102*2002.953040 
102*2002.953040 102*1998.796765 
102*1998.796765 102*1994.640491 
102*1994.640491 102*1990.484216 
102*1990.484216 102*1986.327942 
102*1986.327942 102*1982.171668 
102*1982.171668 102*1978.015393 
102*1978.015393 102*1973.859119 
102*1973.859119 102*1969.702844 
102*1969.702844 102*1965.546570 
102*1965.546570 102*1961.390295 
102*1961.390295 102*1957.234021 
102*1957.234021 102*1953.077747 
102*1953.077747 102*1948.921472 
102*1948.921472 102*1944.765198 
102*1944.765198 102*1940.608923 
102*1940.608923 102*1936.452649 
102*1936.452649 102*1932.296375 
102*1932.296375 102*1928.140100 
102*1928.140100 102*1923.983826 
102*1923.983826 102*1919.827551 
102*1919.827551 102*1915.671277 
102*2130.141272 102*2125.984997 
102*2125.984997 102*2121.828723 
102*2121.828723 102*2117.672449 
102*2117.672449 102*2113.516174 
102*2113.516174 102*2109.359900 
102*2109.359900 102*2105.203625 
102*2105.203625 102*2101.047351 
102*2101.047351 102*2096.891077 
102*2096.891077 102*2092.734802 
102*2092.734802 102*2088.578528 
102*2088.578528 102*2084.422253 
102*2084.422253 102*2080.265979 
102*2080.265979 102*2076.109705 
102*2076.109705 102*2071.953430 
102*2071.953430 102*2067.797156 
102*2067.797156 102*2063.640881 
102*2063.640881 102*2059.484607 
102*2059.484607 102*2055.328332 
102*2055.328332 102*2051.172058 
102*2051.172058 102*2047.015784 
102*2047.015784 102*2042.859509 
102*2042.859509 102*2038.703235 
102*2038.703235 102*2034.546960 
102*2034.546960 102*2030.390686 
102*2030.390686 102*2026.234412 
102*2026.234412 102*2022.078137 
102*2022.078137 102*2017.921863 
102*2017.921863 102*2013.765588 
102*2013.765588 102*2009.609314 
102*2009.609314 102*2005.453040 
102*2005.453040 102*2001.296765 
102*2001.296765 102*1997.140491 
102*1997.140491 102*1992.984216 
102*1992.984216 102*1988.827942 
102*1988.827942 102*1984.671668 
102*1984.671668 102*1980.515393 
102*1980.515393 102*1976.359119 
102*1976.359119 102*1972.202844 
102*1972.202844 102*1968.046570 
102*1968.046570 102*1963.890295 
102*1963.890295 102*1959.734021 
102*1959.734021 102*1955.577747 
102*1955.577747 102*1951.421472 
102*1951.421472 102*1947.265198 
102*1947.265198 102*1943.108923 
102*1943.108923 102*1938.952649 
102*1938.952649 102*1934.796375 
102*1934.796375 102*1930.640100 
102*1930.640100 102*1926.483826 
102*1926.483826 102*1922.327551 
102*1922.327551 102*1918.171277 
102*2130.141272 102*2125.984997 
102*2125.984997 102*2121.828723 
102*2121.828723 102*2117.672449 
102*2117.672449 102*2113.516174 
102*2113.516174 102*2109.359900 
102*2109.359900 102*2105.203625 
102*2105.203625 102*2101.047351 
102*2101.047351 102*2096.891077 
102*2096.891077 102*2092.734802 
102*2092.734802 102*2088.578528 
102*2088.578528 102*2084.422253 
102*2084.422253 102*2080.265979 
102*2080.265979 102*2076.109705 
102*2076.109705 102*2071.953430 
102*2071.953430 102*2067.797156 
102*2067.797156 102*2063.640881 
102*2063.640881 102*2059.484607 
102*2059.484607 102*2055.328332 
102*2055.328332 102*2051.172058 
102*2051.172058 102*2047.015784 
102*2047.015784 102*2042.859509 
102*2042.859509 102*2038.703235 
102*2038.703235 102*2034.546960 
102*2034.546960 102*2030.390686 
102*2030.390686 102*2026.234412 
102*2026.234412 102*2022.078137 
102*2022.078137 102*2017.921863 
102*2017.921863 102*2013.765588 
102*2013.765588 102*2009.609314 
102*2009.609314 102*2005.453040 
102*2005.453040 102*2001.296765 
102*2001.296765 102*1997.140491 
102*1997.140491 102*1992.984216 
102*1992.984216 102*1988.827942 
102*1988.827942 102*1984.671668 
102*1984.671668 102*1980.515393 
102*1980.515393 102*1976.359119 
102*1976.359119 102*1972.202844 
102*1972.202844 102*1968.046570 
102*1968.046570 102*1963.890295 
102*1963.890295 102*1959.734021 
102*1959.734021 102*1955.577747 
102*1955.577747 102*1951.421472 
102*1951.421472 102*1947.265198 
102*1947.265198 102*1943.108923 
102*1943.108923 102*1938.952649 
102*1938.952649 102*1934.796375 
102*1934.796375 102*1930.640100 
102*1930.640100 102*1926.483826 
102*1926.483826 102*1922.327551 
102*1922.327551 102*1918.171277 
102*2132.641272 102*2128.484997 
102*2128.484997 102*2124.328723 
102*2124.328723 102*2120.172449 
102*2120.172449 102*2116.016174 
102*2116.016174 102*2111.859900 
102*2111.859900 102*2107.703625 
102*2107.703625 102*2103.547351 
102*2103.547351 102*2099.391077 
102*2099.391077 102*2095.234802 
102*2095.234802 102*2091.078528 
102*2091.078528 102*2086.922253 
102*2086.922253 102*2082.765979 
102*2082.765979 102*2078.609705 
102*2078.609705 102*2074.453430 
102*2074.453430 102*2070.297156 
102*2070.297156 102*2066.140881 
102*2066.140881 102*2061.984607 
102*2061.984607 102*2057.828332 
102*2057.828332 102*2053.672058 
102*2053.672058 102*2049.515784 
102*2049.515784 102*2045.359509 
102*2045.359509 102*2041.203235 
102*2041.203235 102*2037.046960 
102*2037.046960 102*2032.890686 
102*2032.890686 102*2028.734412 
102*2028.734412 102*2024.578137 
102*2024.578137 102*2020.421863 
102*2020.421863 102*2016.265588 
102*2016.265588 102*2012.109314 
102*2012.109314 102*2007.953040 
102*2007.953040 102*2003.796765 
102*2003.796765 102*1999.640491 
102*1999.640491 102*1995.484216 
102*1995.484216 102*1991.327942 
102*1991.327942 102*1987.171668 
102*1987.171668 102*1983.015393 
102*1983.015393 102*1978.859119 
102*1978.859119 102*1974.702844 
102*1974.702844 102*1970.546570 
102*1970.546570 102*1966.390295 
102*1966.390295 102*1962.234021 