ZCORN
102*2117.555131 102*2113.119089 
102*2113.119089 102*2108.683046 
102*2108.683046 102*2104.247003 
102*2104.247003 102*2099.810960 
102*2099.810960 102*2095.374918 
102*2095.374918 102*2090.938875 
102*2090.938875 102*2086.502832 
102*2086.502832 102*2082.066790 
102*2082.066790 102*2077.630747 
102*2077.630747 102*2073.194704 
102*2073.194704 102*2068.758662 
102*2068.758662 102*2064.322619 
102*2064.322619 102*2059.886576 
102*2059.886576 102*2055.450534 
102*2055.450534 102*2051.014491 
102*2051.014491 102*2046.578448 
102*2046.578448 102*2042.142406 
102*2042.142406 102*2037.706363 
102*2037.706363 102*2033.270320 
102*2033.270320 102*2028.834277 
102*2028.834277 102*2024.398235 
102*2024.398235 102*2019.962192 
102*2019.962192 102*2015.526149 
102*2015.526149 102*2011.090107 
102*2011.090107 102*2006.654064 
102*2006.654064 102*2002.218021 
102*2002.218021 102*1997.781979 
102*1997.781979 102*1993.345936 
102*1993.345936 102*1988.909893 
102*1988.909893 102*1984.473851 
102*1984.473851 102*1980.037808 
102*1980.037808 102*1975.601765 
102*1975.601765 102*1971.165723 
102*1971.165723 102*1966.729680 
102*1966.729680 102*1962.293637 
102*1962.293637 102*1957.857594 
102*1957.857594 102*1953.421552 
102*1953.421552 102*1948.985509 
102*1948.985509 102*1944.549466 
102*1944.549466 102*1940.113424 
102*1940.113424 102*1935.677381 
102*1935.677381 102*1931.241338 
102*1931.241338 102*1926.805296 
102*1926.805296 102*1922.369253 
102*1922.369253 102*1917.933210 
102*1917.933210 102*1913.497168 
102*1913.497168 102*1909.061125 
102*1909.061125 102*1904.625082 
102*1904.625082 102*1900.189040 
102*1900.189040 102*1895.752997 
102*1895.752997 102*1891.316954 
102*2120.055131 102*2115.619089 
102*2115.619089 102*2111.183046 
102*2111.183046 102*2106.747003 
102*2106.747003 102*2102.310960 
102*2102.310960 102*2097.874918 
102*2097.874918 102*2093.438875 
102*2093.438875 102*2089.002832 
102*2089.002832 102*2084.566790 
102*2084.566790 102*2080.130747 
102*2080.130747 102*2075.694704 
102*2075.694704 102*2071.258662 
102*2071.258662 102*2066.822619 
102*2066.822619 102*2062.386576 
102*2062.386576 102*2057.950534 
102*2057.950534 102*2053.514491 
102*2053.514491 102*2049.078448 
102*2049.078448 102*2044.642406 
102*2044.642406 102*2040.206363 
102*2040.206363 102*2035.770320 
102*2035.770320 102*2031.334277 
102*2031.334277 102*2026.898235 
102*2026.898235 102*2022.462192 
102*2022.462192 102*2018.026149 
102*2018.026149 102*2013.590107 
102*2013.590107 102*2009.154064 
102*2009.154064 102*2004.718021 
102*2004.718021 102*2000.281979 
102*2000.281979 102*1995.845936 
102*1995.845936 102*1991.409893 
102*1991.409893 102*1986.973851 
102*1986.973851 102*1982.537808 
102*1982.537808 102*1978.101765 
102*1978.101765 102*1973.665723 
102*1973.665723 102*1969.229680 
102*1969.229680 102*1964.793637 
102*1964.793637 102*1960.357594 
102*1960.357594 102*1955.921552 
102*1955.921552 102*1951.485509 
102*1951.485509 102*1947.049466 
102*1947.049466 102*1942.613424 
102*1942.613424 102*1938.177381 
102*1938.177381 102*1933.741338 
102*1933.741338 102*1929.305296 
102*1929.305296 102*1924.869253 
102*1924.869253 102*1920.433210 
102*1920.433210 102*1915.997168 
102*1915.997168 102*1911.561125 
102*1911.561125 102*1907.125082 
102*1907.125082 102*1902.689040 
102*1902.689040 102*1898.252997 
102*1898.252997 102*1893.816954 
102*2120.055131 102*2115.619089 
102*2115.619089 102*2111.183046 
102*2111.183046 102*2106.747003 
102*2106.747003 102*2102.310960 
102*2102.310960 102*2097.874918 
102*2097.874918 102*2093.438875 
102*2093.438875 102*2089.002832 
102*2089.002832 102*2084.566790 
102*2084.566790 102*2080.130747 
102*2080.130747 102*2075.694704 
102*2075.694704 102*2071.258662 
102*2071.258662 102*2066.822619 
102*2066.822619 102*2062.386576 
102*2062.386576 102*2057.950534 
102*2057.950534 102*2053.514491 
102*2053.514491 102*2049.078448 
102*2049.078448 102*2044.642406 
102*2044.642406 102*2040.206363 
102*2040.206363 102*2035.770320 
102*2035.770320 102*2031.334277 
102*2031.334277 102*2026.898235 
102*2026.898235 102*2022.462192 
102*2022.462192 102*2018.026149 
102*2018.026149 102*2013.590107 
102*2013.590107 102*2009.154064 
102*2009.154064 102*2004.718021 
102*2004.718021 102*2000.281979 
102*2000.281979 102*1995.845936 
102*1995.845936 102*1991.409893 
102*1991.409893 102*1986.973851 
102*1986.973851 102*1982.537808 
102*1982.537808 102*1978.101765 
102*1978.101765 102*1973.665723 
102*1973.665723 102*1969.229680 
102*1969.229680 102*1964.793637 
102*1964.793637 102*1960.357594 
102*1960.357594 102*1955.921552 
102*1955.921552 102*1951.485509 
102*1951.485509 102*1947.049466 
102*1947.049466 102*1942.613424 
102*1942.613424 102*1938.177381 
102*1938.177381 102*1933.741338 
102*1933.741338 102*1929.305296 
102*1929.305296 102*1924.869253 
102*1924.869253 102*1920.433210 
102*1920.433210 102*1915.997168 
102*1915.997168 102*1911.561125 
102*1911.561125 102*1907.125082 
102*1907.125082 102*1902.689040 
102*1902.689040 102*1898.252997 
102*1898.252997 102*1893.816954 
102*2122.555131 102*2118.119089 
102*2118.119089 102*2113.683046 
102*2113.683046 102*2109.247003 
102*2109.247003 102*2104.810960 
102*2104.810960 102*2100.374918 
102*2100.374918 102*2095.938875 
102*2095.938875 102*2091.502832 
102*2091.502832 102*2087.066790 
102*2087.066790 102*2082.630747 
102*2082.630747 102*2078.194704 
102*2078.194704 102*2073.758662 
102*2073.758662 102*2069.322619 
102*2069.322619 102*2064.886576 
102*2064.886576 102*2060.450534 
102*2060.450534 102*2056.014491 
102*2056.014491 102*2051.578448 
102*2051.578448 102*2047.142406 
102*2047.142406 102*2042.706363 
102*2042.706363 102*2038.270320 
102*2038.270320 102*2033.834277 
102*2033.834277 102*2029.398235 
102*2029.398235 102*2024.962192 
102*2024.962192 102*2020.526149 
102*2020.526149 102*2016.090107 
102*2016.090107 102*2011.654064 
102*2011.654064 102*2007.218021 
102*2007.218021 102*2002.781979 
102*2002.781979 102*1998.345936 
102*1998.345936 102*1993.909893 
102*1993.909893 102*1989.473851 
102*1989.473851 102*1985.037808 
102*1985.037808 102*1980.601765 
102*1980.601765 102*1976.165723 
102*1976.165723 102*1971.729680 
102*1971.729680 102*1967.293637 
102*1967.293637 102*1962.857594 
102*1962.857594 102*1958.421552 
102*1958.421552 102*1953.985509 
102*1953.985509 102*1949.549466 
102*1949.549466 102*1945.113424 
102*1945.113424 102*1940.677381 
102*1940.677381 102*1936.241338 
102*1936.241338 102*1931.805296 
102*1931.805296 102*1927.369253 
102*1927.369253 102*1922.933210 
102*1922.933210 102*1918.497168 
102*1918.497168 102*1914.061125 
102*1914.061125 102*1909.625082 
102*1909.625082 102*1905.189040 
102*1905.189040 102*1900.752997 
102*1900.752997 102*1896.316954 
102*2122.555131 102*2118.119089 
102*2118.119089 102*2113.683046 
102*2113.683046 102*2109.247003 
102*2109.247003 102*2104.810960 
102*2104.810960 102*2100.374918 
102*2100.374918 102*2095.938875 
102*2095.938875 102*2091.502832 
102*2091.502832 102*2087.066790 
102*2087.066790 102*2082.630747 
102*2082.630747 102*2078.194704 
102*2078.194704 102*2073.758662 
102*2073.758662 102*2069.322619 
102*2069.322619 102*2064.886576 
102*2064.886576 102*2060.450534 
102*2060.450534 102*2056.014491 
102*2056.014491 102*2051.578448 
102*2051.578448 102*2047.142406 
102*2047.142406 102*2042.706363 
102*2042.706363 102*2038.270320 
102*2038.270320 102*2033.834277 
102*2033.834277 102*2029.398235 
102*2029.398235 102*2024.962192 
102*2024.962192 102*2020.526149 
102*2020.526149 102*2016.090107 
102*2016.090107 102*2011.654064 
102*2011.654064 102*2007.218021 
102*2007.218021 102*2002.781979 
102*2002.781979 102*1998.345936 
102*1998.345936 102*1993.909893 
102*1993.909893 102*1989.473851 
102*1989.473851 102*1985.037808 
102*1985.037808 102*1980.601765 
102*1980.601765 102*1976.165723 
102*1976.165723 102*1971.729680 
102*1971.729680 102*1967.293637 
102*1967.293637 102*1962.857594 
102*1962.857594 102*1958.421552 
102*1958.421552 102*1953.985509 
102*1953.985509 102*1949.549466 
102*1949.549466 102*1945.113424 
102*1945.113424 102*1940.677381 
102*1940.677381 102*1936.241338 
102*1936.241338 102*1931.805296 
102*1931.805296 102*1927.369253 
102*1927.369253 102*1922.933210 
102*1922.933210 102*1918.497168 
102*1918.497168 102*1914.061125 
102*1914.061125 102*1909.625082 
102*1909.625082 102*1905.189040 
102*1905.189040 102*1900.752997 
102*1900.752997 102*1896.316954 
102*2125.055131 102*2120.619089 
102*2120.619089 102*2116.183046 
102*2116.183046 102*2111.747003 
102*2111.747003 102*2107.310960 
102*2107.310960 102*2102.874918 
102*2102.874918 102*2098.438875 
102*2098.438875 102*2094.002832 
102*2094.002832 102*2089.566790 
102*2089.566790 102*2085.130747 
102*2085.130747 102*2080.694704 
102*2080.694704 102*2076.258662 
102*2076.258662 102*2071.822619 
102*2071.822619 102*2067.386576 
102*2067.386576 102*2062.950534 
102*2062.950534 102*2058.514491 
102*2058.514491 102*2054.078448 
102*2054.078448 102*2049.642406 
102*2049.642406 102*2045.206363 
102*2045.206363 102*2040.770320 
102*2040.770320 102*2036.334277 
102*2036.334277 102*2031.898235 
102*2031.898235 102*2027.462192 
102*2027.462192 102*2023.026149 
102*2023.026149 102*2018.590107 
102*2018.590107 102*2014.154064 
102*2014.154064 102*2009.718021 
102*2009.718021 102*2005.281979 
102*2005.281979 102*2000.845936 
102*2000.845936 102*1996.409893 
102*1996.409893 102*1991.973851 
102*1991.973851 102*1987.537808 
102*1987.537808 102*1983.101765 
102*1983.101765 102*1978.665723 
102*1978.665723 102*1974.229680 
102*1974.229680 102*1969.793637 
102*1969.793637 102*1965.357594 
102*1965.357594 102*1960.921552 
102*1960.921552 102*1956.485509 
102*1956.485509 102*1952.049466 
102*1952.049466 102*1947.613424 
102*1947.613424 102*1943.177381 
102*1943.177381 102*1938.741338 
102*1938.741338 102*1934.305296 
102*1934.305296 102*1929.869253 
102*1929.869253 102*1925.433210 
102*1925.433210 102*1920.997168 
102*1920.997168 102*1916.561125 
102*1916.561125 102*1912.125082 
102*1912.125082 102*1907.689040 
102*1907.689040 102*1903.252997 
102*1903.252997 102*1898.816954 
102*2125.055131 102*2120.619089 
102*2120.619089 102*2116.183046 
102*2116.183046 102*2111.747003 
102*2111.747003 102*2107.310960 
102*2107.310960 102*2102.874918 
102*2102.874918 102*2098.438875 
102*2098.438875 102*2094.002832 
102*2094.002832 102*2089.566790 
102*2089.566790 102*2085.130747 
102*2085.130747 102*2080.694704 
102*2080.694704 102*2076.258662 
102*2076.258662 102*2071.822619 
102*2071.822619 102*2067.386576 
102*2067.386576 102*2062.950534 
102*2062.950534 102*2058.514491 
102*2058.514491 102*2054.078448 
102*2054.078448 102*2049.642406 
102*2049.642406 102*2045.206363 
102*2045.206363 102*2040.770320 
102*2040.770320 102*2036.334277 
102*2036.334277 102*2031.898235 
102*2031.898235 102*2027.462192 
102*2027.462192 102*2023.026149 
102*2023.026149 102*2018.590107 
102*2018.590107 102*2014.154064 
102*2014.154064 102*2009.718021 
102*2009.718021 102*2005.281979 
102*2005.281979 102*2000.845936 
102*2000.845936 102*1996.409893 
102*1996.409893 102*1991.973851 
102*1991.973851 102*1987.537808 
102*1987.537808 102*1983.101765 
102*1983.101765 102*1978.665723 
102*1978.665723 102*1974.229680 
102*1974.229680 102*1969.793637 
102*1969.793637 102*1965.357594 
102*1965.357594 102*1960.921552 
102*1960.921552 102*1956.485509 
102*1956.485509 102*1952.049466 
102*1952.049466 102*1947.613424 
102*1947.613424 102*1943.177381 
102*1943.177381 102*1938.741338 
102*1938.741338 102*1934.305296 
102*1934.305296 102*1929.869253 
102*1929.869253 102*1925.433210 
102*1925.433210 102*1920.997168 
102*1920.997168 102*1916.561125 
102*1916.561125 102*1912.125082 
102*1912.125082 102*1907.689040 
102*1907.689040 102*1903.252997 
102*1903.252997 102*1898.816954 
102*2127.555131 102*2123.119089 
102*2123.119089 102*2118.683046 
102*2118.683046 102*2114.247003 
102*2114.247003 102*2109.810960 
102*2109.810960 102*2105.374918 
102*2105.374918 102*2100.938875 
102*2100.938875 102*2096.502832 
102*2096.502832 102*2092.066790 
102*2092.066790 102*2087.630747 
102*2087.630747 102*2083.194704 
102*2083.194704 102*2078.758662 
102*2078.758662 102*2074.322619 
102*2074.322619 102*2069.886576 
102*2069.886576 102*2065.450534 
102*2065.450534 102*2061.014491 
102*2061.014491 102*2056.578448 
102*2056.578448 102*2052.142406 
102*2052.142406 102*2047.706363 
102*2047.706363 102*2043.270320 
102*2043.270320 102*2038.834277 
102*2038.834277 102*2034.398235 
102*2034.398235 102*2029.962192 
102*2029.962192 102*2025.526149 
102*2025.526149 102*2021.090107 
102*2021.090107 102*2016.654064 
102*2016.654064 102*2012.218021 
102*2012.218021 102*2007.781979 
102*2007.781979 102*2003.345936 
102*2003.345936 102*1998.909893 
102*1998.909893 102*1994.473851 
102*1994.473851 102*1990.037808 
102*1990.037808 102*1985.601765 
102*1985.601765 102*1981.165723 
102*1981.165723 102*1976.729680 
102*1976.729680 102*1972.293637 
102*1972.293637 102*1967.857594 
102*1967.857594 102*1963.421552 
102*1963.421552 102*1958.985509 
102*1958.985509 102*1954.549466 
102*1954.549466 102*1950.113424 
102*1950.113424 102*1945.677381 
102*1945.677381 102*1941.241338 
102*1941.241338 102*1936.805296 
102*1936.805296 102*1932.369253 
102*1932.369253 102*1927.933210 
102*1927.933210 102*1923.497168 
102*1923.497168 102*1919.061125 
102*1919.061125 102*1914.625082 
102*1914.625082 102*1910.189040 
102*1910.189040 102*1905.752997 
102*1905.752997 102*1901.316954 
102*2127.555131 102*2123.119089 
102*2123.119089 102*2118.683046 
102*2118.683046 102*2114.247003 
102*2114.247003 102*2109.810960 
102*2109.810960 102*2105.374918 
102*2105.374918 102*2100.938875 
102*2100.938875 102*2096.502832 
102*2096.502832 102*2092.066790 
102*2092.066790 102*2087.630747 
102*2087.630747 102*2083.194704 
102*2083.194704 102*2078.758662 
102*2078.758662 102*2074.322619 
102*2074.322619 102*2069.886576 
102*2069.886576 102*2065.450534 
102*2065.450534 102*2061.014491 
102*2061.014491 102*2056.578448 
102*2056.578448 102*2052.142406 
102*2052.142406 102*2047.706363 
102*2047.706363 102*2043.270320 
102*2043.270320 102*2038.834277 
102*2038.834277 102*2034.398235 
102*2034.398235 102*2029.962192 
102*2029.962192 102*2025.526149 
102*2025.526149 102*2021.090107 
102*2021.090107 102*2016.654064 
102*2016.654064 102*2012.218021 
102*2012.218021 102*2007.781979 
102*2007.781979 102*2003.345936 
102*2003.345936 102*1998.909893 
102*1998.909893 102*1994.473851 
102*1994.473851 102*1990.037808 
102*1990.037808 102*1985.601765 
102*1985.601765 102*1981.165723 
102*1981.165723 102*1976.729680 
102*1976.729680 102*1972.293637 
102*1972.293637 102*1967.857594 
102*1967.857594 102*1963.421552 
102*1963.421552 102*1958.985509 
102*1958.985509 102*1954.549466 
102*1954.549466 102*1950.113424 
102*1950.113424 102*1945.677381 
102*1945.677381 102*1941.241338 
102*1941.241338 102*1936.805296 
102*1936.805296 102*1932.369253 
102*1932.369253 102*1927.933210 
102*1927.933210 102*1923.497168 
102*1923.497168 102*1919.061125 
102*1919.061125 102*1914.625082 
102*1914.625082 102*1910.189040 
102*1910.189040 102*1905.752997 
102*1905.752997 102*1901.316954 
102*2130.055131 102*2125.619089 
102*2125.619089 102*2121.183046 
102*2121.183046 102*2116.747003 
102*2116.747003 102*2112.310960 
102*2112.310960 102*2107.874918 
102*2107.874918 102*2103.438875 
102*2103.438875 102*2099.002832 
102*2099.002832 102*2094.566790 
102*2094.566790 102*2090.130747 
102*2090.130747 102*2085.694704 
102*2085.694704 102*2081.258662 
102*2081.258662 102*2076.822619 
102*2076.822619 102*2072.386576 
102*2072.386576 102*2067.950534 
102*2067.950534 102*2063.514491 
102*2063.514491 102*2059.078448 
102*2059.078448 102*2054.642406 
102*2054.642406 102*2050.206363 
102*2050.206363 102*2045.770320 
102*2045.770320 102*2041.334277 
102*2041.334277 102*2036.898235 
102*2036.898235 102*2032.462192 
102*2032.462192 102*2028.026149 
102*2028.026149 102*2023.590107 
102*2023.590107 102*2019.154064 
102*2019.154064 102*2014.718021 
102*2014.718021 102*2010.281979 
102*2010.281979 102*2005.845936 
102*2005.845936 102*2001.409893 
102*2001.409893 102*1996.973851 
102*1996.973851 102*1992.537808 
102*1992.537808 102*1988.101765 
102*1988.101765 102*1983.665723 
102*1983.665723 102*1979.229680 
102*1979.229680 102*1974.793637 
102*1974.793637 102*1970.357594 
102*1970.357594 102*1965.921552 
102*1965.921552 102*1961.485509 
102*1961.485509 102*1957.049466 
102*1957.049466 102*1952.613424 
102*1952.613424 102*1948.177381 
102*1948.177381 102*1943.741338 
102*1943.741338 102*1939.305296 
102*1939.305296 102*1934.869253 
102*1934.869253 102*1930.433210 
102*1930.433210 102*1925.997168 
102*1925.997168 102*1921.561125 
102*1921.561125 102*1917.125082 
102*1917.125082 102*1912.689040 
102*1912.689040 102*1908.252997 
102*1908.252997 102*1903.816954 
102*2130.055131 102*2125.619089 
102*2125.619089 102*2121.183046 
102*2121.183046 102*2116.747003 
102*2116.747003 102*2112.310960 
102*2112.310960 102*2107.874918 
102*2107.874918 102*2103.438875 
102*2103.438875 102*2099.002832 
102*2099.002832 102*2094.566790 
102*2094.566790 102*2090.130747 
102*2090.130747 102*2085.694704 
102*2085.694704 102*2081.258662 
102*2081.258662 102*2076.822619 
102*2076.822619 102*2072.386576 
102*2072.386576 102*2067.950534 
102*2067.950534 102*2063.514491 
102*2063.514491 102*2059.078448 
102*2059.078448 102*2054.642406 
102*2054.642406 102*2050.206363 
102*2050.206363 102*2045.770320 
102*2045.770320 102*2041.334277 
102*2041.334277 102*2036.898235 
102*2036.898235 102*2032.462192 
102*2032.462192 102*2028.026149 
102*2028.026149 102*2023.590107 
102*2023.590107 102*2019.154064 
102*2019.154064 102*2014.718021 
102*2014.718021 102*2010.281979 
102*2010.281979 102*2005.845936 
102*2005.845936 102*2001.409893 
102*2001.409893 102*1996.973851 
102*1996.973851 102*1992.537808 
102*1992.537808 102*1988.101765 
102*1988.101765 102*1983.665723 
102*1983.665723 102*1979.229680 
102*1979.229680 102*1974.793637 
102*1974.793637 102*1970.357594 
102*1970.357594 102*1965.921552 
102*1965.921552 102*1961.485509 
102*1961.485509 102*1957.049466 
102*1957.049466 102*1952.613424 
102*1952.613424 102*1948.177381 
102*1948.177381 102*1943.741338 
102*1943.741338 102*1939.305296 
102*1939.305296 102*1934.869253 
102*1934.869253 102*1930.433210 
102*1930.433210 102*1925.997168 
102*1925.997168 102*1921.561125 
102*1921.561125 102*1917.125082 
102*1917.125082 102*1912.689040 
102*1912.689040 102*1908.252997 
102*1908.252997 102*1903.816954 
102*2132.555131 102*2128.119089 
102*2128.119089 102*2123.683046 
102*2123.683046 102*2119.247003 
102*2119.247003 102*2114.810960 
102*2114.810960 102*2110.374918 
102*2110.374918 102*2105.938875 
102*2105.938875 102*2101.502832 
102*2101.502832 102*2097.066790 
102*2097.066790 102*2092.630747 
102*2092.630747 102*2088.194704 
102*2088.194704 102*2083.758662 
102*2083.758662 102*2079.322619 
102*2079.322619 102*2074.886576 
102*2074.886576 102*2070.450534 
102*2070.450534 102*2066.014491 
102*2066.014491 102*2061.578448 
102*2061.578448 102*2057.142406 
102*2057.142406 102*2052.706363 
102*2052.706363 102*2048.270320 
102*2048.270320 102*2043.834277 
102*2043.834277 102*2039.398235 
102*2039.398235 102*2034.962192 
102*2034.962192 102*2030.526149 
102*2030.526149 102*2026.090107 
102*2026.090107 102*2021.654064 
102*2021.654064 102*2017.218021 
102*2017.218021 102*2012.781979 
102*2012.781979 102*2008.345936 
102*2008.345936 102*2003.909893 
102*2003.909893 102*1999.473851 
102*1999.473851 102*1995.037808 
102*1995.037808 102*1990.601765 
102*1990.601765 102*1986.165723 
102*1986.165723 102*1981.729680 
102*1981.729680 102*1977.293637 
102*1977.293637 102*1972.857594 
102*1972.857594 102*1968.421552 
102*1968.421552 102*1963.985509 
102*1963.985509 102*1959.549466 
102*1959.549466 102*1955.113424 
102*1955.113424 102*1950.677381 
102*1950.677381 102*1946.241338 
102*1946.241338 102*1941.805296 
102*1941.805296 102*1937.369253 
102*1937.369253 102*1932.933210 
102*1932.933210 102*1928.497168 
102*1928.497168 102*1924.061125 
102*1924.061125 102*1919.625082 
102*1919.625082 102*1915.189040 
102*1915.189040 102*1910.752997 
102*1910.752997 102*1906.316954 
102*2132.555131 102*2128.119089 
102*2128.119089 102*2123.683046 
102*2123.683046 102*2119.247003 
102*2119.247003 102*2114.810960 
102*2114.810960 102*2110.374918 
102*2110.374918 102*2105.938875 
102*2105.938875 102*2101.502832 
102*2101.502832 102*2097.066790 
102*2097.066790 102*2092.630747 
102*2092.630747 102*2088.194704 
102*2088.194704 102*2083.758662 
102*2083.758662 102*2079.322619 
102*2079.322619 102*2074.886576 
102*2074.886576 102*2070.450534 
102*2070.450534 102*2066.014491 
102*2066.014491 102*2061.578448 
102*2061.578448 102*2057.142406 
102*2057.142406 102*2052.706363 
102*2052.706363 102*2048.270320 
102*2048.270320 102*2043.834277 
102*2043.834277 102*2039.398235 
102*2039.398235 102*2034.962192 
102*2034.962192 102*2030.526149 
102*2030.526149 102*2026.090107 
102*2026.090107 102*2021.654064 
102*2021.654064 102*2017.218021 
102*2017.218021 102*2012.781979 
102*2012.781979 102*2008.345936 
102*2008.345936 102*2003.909893 
102*2003.909893 102*1999.473851 
102*1999.473851 102*1995.037808 
102*1995.037808 102*1990.601765 
102*1990.601765 102*1986.165723 
102*1986.165723 102*1981.729680 
102*1981.729680 102*1977.293637 
102*1977.293637 102*1972.857594 
102*1972.857594 102*1968.421552 
102*1968.421552 102*1963.985509 
102*1963.985509 102*1959.549466 
102*1959.549466 102*1955.113424 
102*1955.113424 102*1950.677381 
102*1950.677381 102*1946.241338 
102*1946.241338 102*1941.805296 
102*1941.805296 102*1937.369253 
102*1937.369253 102*1932.933210 
102*1932.933210 102*1928.497168 
102*1928.497168 102*1924.061125 
102*1924.061125 102*1919.625082 
102*1919.625082 102*1915.189040 
102*1915.189040 102*1910.752997 
102*1910.752997 102*1906.316954 
102*2135.055131 102*2130.619089 
102*2130.619089 102*2126.183046 
102*2126.183046 102*2121.747003 
102*2121.747003 102*2117.310960 
102*2117.310960 102*2112.874918 
102*2112.874918 102*2108.438875 
102*2108.438875 102*2104.002832 
102*2104.002832 102*2099.566790 
102*2099.566790 102*2095.130747 
102*2095.130747 102*2090.694704 
102*2090.694704 102*2086.258662 
102*2086.258662 102*2081.822619 
102*2081.822619 102*2077.386576 
102*2077.386576 102*2072.950534 
102*2072.950534 102*2068.514491 
102*2068.514491 102*2064.078448 
102*2064.078448 102*2059.642406 
102*2059.642406 102*2055.206363 
102*2055.206363 102*2050.770320 
102*2050.770320 102*2046.334277 
102*2046.334277 102*2041.898235 
102*2041.898235 102*2037.462192 
102*2037.462192 102*2033.026149 
102*2033.026149 102*2028.590107 
102*2028.590107 102*2024.154064 
102*2024.154064 102*2019.718021 
102*2019.718021 102*2015.281979 
102*2015.281979 102*2010.845936 
102*2010.845936 102*2006.409893 
102*2006.409893 102*2001.973851 
102*2001.973851 102*1997.537808 
102*1997.537808 102*1993.101765 
102*1993.101765 102*1988.665723 
102*1988.665723 102*1984.229680 
102*1984.229680 102*1979.793637 
102*1979.793637 102*1975.357594 
102*1975.357594 102*1970.921552 
102*1970.921552 102*1966.485509 
102*1966.485509 102*1962.049466 
102*1962.049466 102*1957.613424 
102*1957.613424 102*1953.177381 
102*1953.177381 102*1948.741338 
102*1948.741338 102*1944.305296 
102*1944.305296 102*1939.869253 
102*1939.869253 102*1935.433210 
102*1935.433210 102*1930.997168 
102*1930.997168 102*1926.561125 
102*1926.561125 102*1922.125082 
102*1922.125082 102*1917.689040 
102*1917.689040 102*1913.252997 
102*1913.252997 102*1908.816954 
102*2135.055131 102*2130.619089 
102*2130.619089 102*2126.183046 
102*2126.183046 102*2121.747003 
102*2121.747003 102*2117.310960 
102*2117.310960 102*2112.874918 
102*2112.874918 102*2108.438875 
102*2108.438875 102*2104.002832 
102*2104.002832 102*2099.566790 
102*2099.566790 102*2095.130747 
102*2095.130747 102*2090.694704 
102*2090.694704 102*2086.258662 
102*2086.258662 102*2081.822619 
102*2081.822619 102*2077.386576 
102*2077.386576 102*2072.950534 
102*2072.950534 102*2068.514491 
102*2068.514491 102*2064.078448 
102*2064.078448 102*2059.642406 
102*2059.642406 102*2055.206363 
102*2055.206363 102*2050.770320 
102*2050.770320 102*2046.334277 
102*2046.334277 102*2041.898235 
102*2041.898235 102*2037.462192 
102*2037.462192 102*2033.026149 
102*2033.026149 102*2028.590107 
102*2028.590107 102*2024.154064 
102*2024.154064 102*2019.718021 
102*2019.718021 102*2015.281979 
102*2015.281979 102*2010.845936 
102*2010.845936 102*2006.409893 
102*2006.409893 102*2001.973851 
102*2001.973851 102*1997.537808 
102*1997.537808 102*1993.101765 
102*1993.101765 102*1988.665723 
102*1988.665723 102*1984.229680 
102*1984.229680 102*1979.793637 
102*1979.793637 102*1975.357594 
102*1975.357594 102*1970.921552 
102*1970.921552 102*1966.485509 
102*1966.485509 102*1962.049466 
102*1962.049466 102*1957.613424 
102*1957.613424 102*1953.177381 
102*1953.177381 102*1948.741338 
102*1948.741338 102*1944.305296 
102*1944.305296 102*1939.869253 
102*1939.869253 102*1935.433210 
102*1935.433210 102*1930.997168 
102*1930.997168 102*1926.561125 
102*1926.561125 102*1922.125082 
102*1922.125082 102*1917.689040 
102*1917.689040 102*1913.252997 
102*1913.252997 102*1908.816954 
102*2137.555131 102*2133.119089 
102*2133.119089 102*2128.683046 
102*2128.683046 102*2124.247003 
102*2124.247003 102*2119.810960 
102*2119.810960 102*2115.374918 
102*2115.374918 102*2110.938875 
102*2110.938875 102*2106.502832 
102*2106.502832 102*2102.066790 
102*2102.066790 102*2097.630747 
102*2097.630747 102*2093.194704 
102*2093.194704 102*2088.758662 
102*2088.758662 102*2084.322619 
102*2084.322619 102*2079.886576 
102*2079.886576 102*2075.450534 
102*2075.450534 102*2071.014491 
102*2071.014491 102*2066.578448 
102*2066.578448 102*2062.142406 
102*2062.142406 102*2057.706363 
102*2057.706363 102*2053.270320 
102*2053.270320 102*2048.834277 
102*2048.834277 102*2044.398235 
102*2044.398235 102*2039.962192 
102*2039.962192 102*2035.526149 
102*2035.526149 102*2031.090107 
102*2031.090107 102*2026.654064 
102*2026.654064 102*2022.218021 
102*2022.218021 102*2017.781979 
102*2017.781979 102*2013.345936 
102*2013.345936 102*2008.909893 
102*2008.909893 102*2004.473851 
102*2004.473851 102*2000.037808 
102*2000.037808 102*1995.601765 
102*1995.601765 102*1991.165723 
102*1991.165723 102*1986.729680 
102*1986.729680 102*1982.293637 
102*1982.293637 102*1977.857594 
102*1977.857594 102*1973.421552 
102*1973.421552 102*1968.985509 
102*1968.985509 102*1964.549466 
102*1964.549466 102*1960.113424 
102*1960.113424 102*1955.677381 
102*1955.677381 102*1951.241338 
102*1951.241338 102*1946.805296 
102*1946.805296 102*1942.369253 
102*1942.369253 102*1937.933210 
102*1937.933210 102*1933.497168 
102*1933.497168 102*1929.061125 
102*1929.061125 102*1924.625082 
102*1924.625082 102*1920.189040 
102*1920.189040 102*1915.752997 
102*1915.752997 102*1911.316954 
102*2137.555131 102*2133.119089 
102*2133.119089 102*2128.683046 
102*2128.683046 102*2124.247003 
102*2124.247003 102*2119.810960 
102*2119.810960 102*2115.374918 
102*2115.374918 102*2110.938875 
102*2110.938875 102*2106.502832 
102*2106.502832 102*2102.066790 
102*2102.066790 102*2097.630747 
102*2097.630747 102*2093.194704 
102*2093.194704 102*2088.758662 
102*2088.758662 102*2084.322619 
102*2084.322619 102*2079.886576 
102*2079.886576 102*2075.450534 
102*2075.450534 102*2071.014491 
102*2071.014491 102*2066.578448 
102*2066.578448 102*2062.142406 
102*2062.142406 102*2057.706363 
102*2057.706363 102*2053.270320 
102*2053.270320 102*2048.834277 
102*2048.834277 102*2044.398235 
102*2044.398235 102*2039.962192 
102*2039.962192 102*2035.526149 
102*2035.526149 102*2031.090107 
102*2031.090107 102*2026.654064 
102*2026.654064 102*2022.218021 
102*2022.218021 102*2017.781979 
102*2017.781979 102*2013.345936 
102*2013.345936 102*2008.909893 
102*2008.909893 102*2004.473851 
102*2004.473851 102*2000.037808 
102*2000.037808 102*1995.601765 
102*1995.601765 102*1991.165723 
102*1991.165723 102*1986.729680 
102*1986.729680 102*1982.293637 
102*1982.293637 102*1977.857594 
102*1977.857594 102*1973.421552 
102*1973.421552 102*1968.985509 
102*1968.985509 102*1964.549466 
102*1964.549466 102*1960.113424 
102*1960.113424 102*1955.677381 
102*1955.677381 102*1951.241338 
102*1951.241338 102*1946.805296 
102*1946.805296 102*1942.369253 
102*1942.369253 102*1937.933210 
102*1937.933210 102*1933.497168 
102*1933.497168 102*1929.061125 
102*1929.061125 102*1924.625082 
102*1924.625082 102*1920.189040 
102*1920.189040 102*1915.752997 
102*1915.752997 102*1911.316954 
102*2140.055131 102*2135.619089 
102*2135.619089 102*2131.183046 
102*2131.183046 102*2126.747003 
102*2126.747003 102*2122.310960 
102*2122.310960 102*2117.874918 
102*2117.874918 102*2113.438875 
102*2113.438875 102*2109.002832 
102*2109.002832 102*2104.566790 
102*2104.566790 102*2100.130747 
102*2100.130747 102*2095.694704 
102*2095.694704 102*2091.258662 
102*2091.258662 102*2086.822619 
102*2086.822619 102*2082.386576 
102*2082.386576 102*2077.950534 
102*2077.950534 102*2073.514491 
102*2073.514491 102*2069.078448 
102*2069.078448 102*2064.642406 
102*2064.642406 102*2060.206363 
102*2060.206363 102*2055.770320 
102*2055.770320 102*2051.334277 
102*2051.334277 102*2046.898235 
102*2046.898235 102*2042.462192 
102*2042.462192 102*2038.026149 
102*2038.026149 102*2033.590107 
102*2033.590107 102*2029.154064 
102*2029.154064 102*2024.718021 
102*2024.718021 102*2020.281979 
102*2020.281979 102*2015.845936 
102*2015.845936 102*2011.409893 
102*2011.409893 102*2006.973851 
102*2006.973851 102*2002.537808 
102*2002.537808 102*1998.101765 
102*1998.101765 102*1993.665723 
102*1993.665723 102*1989.229680 
102*1989.229680 102*1984.793637 
102*1984.793637 102*1980.357594 
102*1980.357594 102*1975.921552 
102*1975.921552 102*1971.485509 
102*1971.485509 102*1967.049466 
102*1967.049466 102*1962.613424 
102*1962.613424 102*1958.177381 