ZCORN
102*2062.913482 102*2060.539389 
102*2060.539389 102*2058.165295 
102*2058.165295 102*2055.791201 
102*2055.791201 102*2053.417108 
102*2053.417108 102*2051.043014 
102*2051.043014 102*2048.668920 
102*2048.668920 102*2046.294827 
102*2046.294827 102*2043.920733 
102*2043.920733 102*2041.546639 
102*2041.546639 102*2039.172546 
102*2039.172546 102*2036.798452 
102*2036.798452 102*2034.424358 
102*2034.424358 102*2032.050265 
102*2032.050265 102*2029.676171 
102*2029.676171 102*2027.302077 
102*2027.302077 102*2024.927984 
102*2024.927984 102*2022.553890 
102*2022.553890 102*2020.179796 
102*2020.179796 102*2017.805703 
102*2017.805703 102*2015.431609 
102*2015.431609 102*2013.057515 
102*2013.057515 102*2010.683422 
102*2010.683422 102*2008.309328 
102*2008.309328 102*2005.935234 
102*2005.935234 102*2003.561141 
102*2003.561141 102*2001.187047 
102*2001.187047 102*1998.812953 
102*1998.812953 102*1996.438859 
102*1996.438859 102*1994.064766 
102*1994.064766 102*1991.690672 
102*1991.690672 102*1989.316578 
102*1989.316578 102*1986.942485 
102*1986.942485 102*1984.568391 
102*1984.568391 102*1982.194297 
102*1982.194297 102*1979.820204 
102*1979.820204 102*1977.446110 
102*1977.446110 102*1975.072016 
102*1975.072016 102*1972.697923 
102*1972.697923 102*1970.323829 
102*1970.323829 102*1967.949735 
102*1967.949735 102*1965.575642 
102*1965.575642 102*1963.201548 
102*1963.201548 102*1960.827454 
102*1960.827454 102*1958.453361 
102*1958.453361 102*1956.079267 
102*1956.079267 102*1953.705173 
102*1953.705173 102*1951.331080 
102*1951.331080 102*1948.956986 
102*1948.956986 102*1946.582892 
102*1946.582892 102*1944.208799 
102*1944.208799 102*1941.834705 
102*2065.413482 102*2063.039389 
102*2063.039389 102*2060.665295 
102*2060.665295 102*2058.291201 
102*2058.291201 102*2055.917108 
102*2055.917108 102*2053.543014 
102*2053.543014 102*2051.168920 
102*2051.168920 102*2048.794827 
102*2048.794827 102*2046.420733 
102*2046.420733 102*2044.046639 
102*2044.046639 102*2041.672546 
102*2041.672546 102*2039.298452 
102*2039.298452 102*2036.924358 
102*2036.924358 102*2034.550265 
102*2034.550265 102*2032.176171 
102*2032.176171 102*2029.802077 
102*2029.802077 102*2027.427984 
102*2027.427984 102*2025.053890 
102*2025.053890 102*2022.679796 
102*2022.679796 102*2020.305703 
102*2020.305703 102*2017.931609 
102*2017.931609 102*2015.557515 
102*2015.557515 102*2013.183422 
102*2013.183422 102*2010.809328 
102*2010.809328 102*2008.435234 
102*2008.435234 102*2006.061141 
102*2006.061141 102*2003.687047 
102*2003.687047 102*2001.312953 
102*2001.312953 102*1998.938859 
102*1998.938859 102*1996.564766 
102*1996.564766 102*1994.190672 
102*1994.190672 102*1991.816578 
102*1991.816578 102*1989.442485 
102*1989.442485 102*1987.068391 
102*1987.068391 102*1984.694297 
102*1984.694297 102*1982.320204 
102*1982.320204 102*1979.946110 
102*1979.946110 102*1977.572016 
102*1977.572016 102*1975.197923 
102*1975.197923 102*1972.823829 
102*1972.823829 102*1970.449735 
102*1970.449735 102*1968.075642 
102*1968.075642 102*1965.701548 
102*1965.701548 102*1963.327454 
102*1963.327454 102*1960.953361 
102*1960.953361 102*1958.579267 
102*1958.579267 102*1956.205173 
102*1956.205173 102*1953.831080 
102*1953.831080 102*1951.456986 
102*1951.456986 102*1949.082892 
102*1949.082892 102*1946.708799 
102*1946.708799 102*1944.334705 
102*2065.413482 102*2063.039389 
102*2063.039389 102*2060.665295 
102*2060.665295 102*2058.291201 
102*2058.291201 102*2055.917108 
102*2055.917108 102*2053.543014 
102*2053.543014 102*2051.168920 
102*2051.168920 102*2048.794827 
102*2048.794827 102*2046.420733 
102*2046.420733 102*2044.046639 
102*2044.046639 102*2041.672546 
102*2041.672546 102*2039.298452 
102*2039.298452 102*2036.924358 
102*2036.924358 102*2034.550265 
102*2034.550265 102*2032.176171 
102*2032.176171 102*2029.802077 
102*2029.802077 102*2027.427984 
102*2027.427984 102*2025.053890 
102*2025.053890 102*2022.679796 
102*2022.679796 102*2020.305703 
102*2020.305703 102*2017.931609 
102*2017.931609 102*2015.557515 
102*2015.557515 102*2013.183422 
102*2013.183422 102*2010.809328 
102*2010.809328 102*2008.435234 
102*2008.435234 102*2006.061141 
102*2006.061141 102*2003.687047 
102*2003.687047 102*2001.312953 
102*2001.312953 102*1998.938859 
102*1998.938859 102*1996.564766 
102*1996.564766 102*1994.190672 
102*1994.190672 102*1991.816578 
102*1991.816578 102*1989.442485 
102*1989.442485 102*1987.068391 
102*1987.068391 102*1984.694297 
102*1984.694297 102*1982.320204 
102*1982.320204 102*1979.946110 
102*1979.946110 102*1977.572016 
102*1977.572016 102*1975.197923 
102*1975.197923 102*1972.823829 
102*1972.823829 102*1970.449735 
102*1970.449735 102*1968.075642 
102*1968.075642 102*1965.701548 
102*1965.701548 102*1963.327454 
102*1963.327454 102*1960.953361 
102*1960.953361 102*1958.579267 
102*1958.579267 102*1956.205173 
102*1956.205173 102*1953.831080 
102*1953.831080 102*1951.456986 
102*1951.456986 102*1949.082892 
102*1949.082892 102*1946.708799 
102*1946.708799 102*1944.334705 
102*2067.913482 102*2065.539389 
102*2065.539389 102*2063.165295 
102*2063.165295 102*2060.791201 
102*2060.791201 102*2058.417108 
102*2058.417108 102*2056.043014 
102*2056.043014 102*2053.668920 
102*2053.668920 102*2051.294827 
102*2051.294827 102*2048.920733 
102*2048.920733 102*2046.546639 
102*2046.546639 102*2044.172546 
102*2044.172546 102*2041.798452 
102*2041.798452 102*2039.424358 
102*2039.424358 102*2037.050265 
102*2037.050265 102*2034.676171 
102*2034.676171 102*2032.302077 
102*2032.302077 102*2029.927984 
102*2029.927984 102*2027.553890 
102*2027.553890 102*2025.179796 
102*2025.179796 102*2022.805703 
102*2022.805703 102*2020.431609 
102*2020.431609 102*2018.057515 
102*2018.057515 102*2015.683422 
102*2015.683422 102*2013.309328 
102*2013.309328 102*2010.935234 
102*2010.935234 102*2008.561141 
102*2008.561141 102*2006.187047 
102*2006.187047 102*2003.812953 
102*2003.812953 102*2001.438859 
102*2001.438859 102*1999.064766 
102*1999.064766 102*1996.690672 
102*1996.690672 102*1994.316578 
102*1994.316578 102*1991.942485 
102*1991.942485 102*1989.568391 
102*1989.568391 102*1987.194297 
102*1987.194297 102*1984.820204 
102*1984.820204 102*1982.446110 
102*1982.446110 102*1980.072016 
102*1980.072016 102*1977.697923 
102*1977.697923 102*1975.323829 
102*1975.323829 102*1972.949735 
102*1972.949735 102*1970.575642 
102*1970.575642 102*1968.201548 
102*1968.201548 102*1965.827454 
102*1965.827454 102*1963.453361 
102*1963.453361 102*1961.079267 
102*1961.079267 102*1958.705173 
102*1958.705173 102*1956.331080 
102*1956.331080 102*1953.956986 
102*1953.956986 102*1951.582892 
102*1951.582892 102*1949.208799 
102*1949.208799 102*1946.834705 
102*2067.913482 102*2065.539389 
102*2065.539389 102*2063.165295 
102*2063.165295 102*2060.791201 
102*2060.791201 102*2058.417108 
102*2058.417108 102*2056.043014 
102*2056.043014 102*2053.668920 
102*2053.668920 102*2051.294827 
102*2051.294827 102*2048.920733 
102*2048.920733 102*2046.546639 
102*2046.546639 102*2044.172546 
102*2044.172546 102*2041.798452 
102*2041.798452 102*2039.424358 
102*2039.424358 102*2037.050265 
102*2037.050265 102*2034.676171 
102*2034.676171 102*2032.302077 
102*2032.302077 102*2029.927984 
102*2029.927984 102*2027.553890 
102*2027.553890 102*2025.179796 
102*2025.179796 102*2022.805703 
102*2022.805703 102*2020.431609 
102*2020.431609 102*2018.057515 
102*2018.057515 102*2015.683422 
102*2015.683422 102*2013.309328 
102*2013.309328 102*2010.935234 
102*2010.935234 102*2008.561141 
102*2008.561141 102*2006.187047 
102*2006.187047 102*2003.812953 
102*2003.812953 102*2001.438859 
102*2001.438859 102*1999.064766 
102*1999.064766 102*1996.690672 
102*1996.690672 102*1994.316578 
102*1994.316578 102*1991.942485 
102*1991.942485 102*1989.568391 
102*1989.568391 102*1987.194297 
102*1987.194297 102*1984.820204 
102*1984.820204 102*1982.446110 
102*1982.446110 102*1980.072016 
102*1980.072016 102*1977.697923 
102*1977.697923 102*1975.323829 
102*1975.323829 102*1972.949735 
102*1972.949735 102*1970.575642 
102*1970.575642 102*1968.201548 
102*1968.201548 102*1965.827454 
102*1965.827454 102*1963.453361 
102*1963.453361 102*1961.079267 
102*1961.079267 102*1958.705173 
102*1958.705173 102*1956.331080 
102*1956.331080 102*1953.956986 
102*1953.956986 102*1951.582892 
102*1951.582892 102*1949.208799 
102*1949.208799 102*1946.834705 
102*2070.413482 102*2068.039389 
102*2068.039389 102*2065.665295 
102*2065.665295 102*2063.291201 
102*2063.291201 102*2060.917108 
102*2060.917108 102*2058.543014 
102*2058.543014 102*2056.168920 
102*2056.168920 102*2053.794827 
102*2053.794827 102*2051.420733 
102*2051.420733 102*2049.046639 
102*2049.046639 102*2046.672546 
102*2046.672546 102*2044.298452 
102*2044.298452 102*2041.924358 
102*2041.924358 102*2039.550265 
102*2039.550265 102*2037.176171 
102*2037.176171 102*2034.802077 
102*2034.802077 102*2032.427984 
102*2032.427984 102*2030.053890 
102*2030.053890 102*2027.679796 
102*2027.679796 102*2025.305703 
102*2025.305703 102*2022.931609 
102*2022.931609 102*2020.557515 
102*2020.557515 102*2018.183422 
102*2018.183422 102*2015.809328 
102*2015.809328 102*2013.435234 
102*2013.435234 102*2011.061141 
102*2011.061141 102*2008.687047 
102*2008.687047 102*2006.312953 
102*2006.312953 102*2003.938859 
102*2003.938859 102*2001.564766 
102*2001.564766 102*1999.190672 
102*1999.190672 102*1996.816578 
102*1996.816578 102*1994.442485 
102*1994.442485 102*1992.068391 
102*1992.068391 102*1989.694297 
102*1989.694297 102*1987.320204 
102*1987.320204 102*1984.946110 
102*1984.946110 102*1982.572016 
102*1982.572016 102*1980.197923 
102*1980.197923 102*1977.823829 
102*1977.823829 102*1975.449735 
102*1975.449735 102*1973.075642 
102*1973.075642 102*1970.701548 
102*1970.701548 102*1968.327454 
102*1968.327454 102*1965.953361 
102*1965.953361 102*1963.579267 
102*1963.579267 102*1961.205173 
102*1961.205173 102*1958.831080 
102*1958.831080 102*1956.456986 
102*1956.456986 102*1954.082892 
102*1954.082892 102*1951.708799 
102*1951.708799 102*1949.334705 
102*2070.413482 102*2068.039389 
102*2068.039389 102*2065.665295 
102*2065.665295 102*2063.291201 
102*2063.291201 102*2060.917108 
102*2060.917108 102*2058.543014 
102*2058.543014 102*2056.168920 
102*2056.168920 102*2053.794827 
102*2053.794827 102*2051.420733 
102*2051.420733 102*2049.046639 
102*2049.046639 102*2046.672546 
102*2046.672546 102*2044.298452 
102*2044.298452 102*2041.924358 
102*2041.924358 102*2039.550265 
102*2039.550265 102*2037.176171 
102*2037.176171 102*2034.802077 
102*2034.802077 102*2032.427984 
102*2032.427984 102*2030.053890 
102*2030.053890 102*2027.679796 
102*2027.679796 102*2025.305703 
102*2025.305703 102*2022.931609 
102*2022.931609 102*2020.557515 
102*2020.557515 102*2018.183422 
102*2018.183422 102*2015.809328 
102*2015.809328 102*2013.435234 
102*2013.435234 102*2011.061141 
102*2011.061141 102*2008.687047 
102*2008.687047 102*2006.312953 
102*2006.312953 102*2003.938859 
102*2003.938859 102*2001.564766 
102*2001.564766 102*1999.190672 
102*1999.190672 102*1996.816578 
102*1996.816578 102*1994.442485 
102*1994.442485 102*1992.068391 
102*1992.068391 102*1989.694297 
102*1989.694297 102*1987.320204 
102*1987.320204 102*1984.946110 
102*1984.946110 102*1982.572016 
102*1982.572016 102*1980.197923 
102*1980.197923 102*1977.823829 
102*1977.823829 102*1975.449735 
102*1975.449735 102*1973.075642 
102*1973.075642 102*1970.701548 
102*1970.701548 102*1968.327454 
102*1968.327454 102*1965.953361 
102*1965.953361 102*1963.579267 
102*1963.579267 102*1961.205173 
102*1961.205173 102*1958.831080 
102*1958.831080 102*1956.456986 
102*1956.456986 102*1954.082892 
102*1954.082892 102*1951.708799 
102*1951.708799 102*1949.334705 
102*2072.913482 102*2070.539389 
102*2070.539389 102*2068.165295 
102*2068.165295 102*2065.791201 
102*2065.791201 102*2063.417108 
102*2063.417108 102*2061.043014 
102*2061.043014 102*2058.668920 
102*2058.668920 102*2056.294827 
102*2056.294827 102*2053.920733 
102*2053.920733 102*2051.546639 
102*2051.546639 102*2049.172546 
102*2049.172546 102*2046.798452 
102*2046.798452 102*2044.424358 
102*2044.424358 102*2042.050265 
102*2042.050265 102*2039.676171 
102*2039.676171 102*2037.302077 
102*2037.302077 102*2034.927984 
102*2034.927984 102*2032.553890 
102*2032.553890 102*2030.179796 
102*2030.179796 102*2027.805703 
102*2027.805703 102*2025.431609 
102*2025.431609 102*2023.057515 
102*2023.057515 102*2020.683422 
102*2020.683422 102*2018.309328 
102*2018.309328 102*2015.935234 
102*2015.935234 102*2013.561141 
102*2013.561141 102*2011.187047 
102*2011.187047 102*2008.812953 
102*2008.812953 102*2006.438859 
102*2006.438859 102*2004.064766 
102*2004.064766 102*2001.690672 
102*2001.690672 102*1999.316578 
102*1999.316578 102*1996.942485 
102*1996.942485 102*1994.568391 
102*1994.568391 102*1992.194297 
102*1992.194297 102*1989.820204 
102*1989.820204 102*1987.446110 
102*1987.446110 102*1985.072016 
102*1985.072016 102*1982.697923 
102*1982.697923 102*1980.323829 
102*1980.323829 102*1977.949735 
102*1977.949735 102*1975.575642 
102*1975.575642 102*1973.201548 
102*1973.201548 102*1970.827454 
102*1970.827454 102*1968.453361 
102*1968.453361 102*1966.079267 
102*1966.079267 102*1963.705173 
102*1963.705173 102*1961.331080 
102*1961.331080 102*1958.956986 
102*1958.956986 102*1956.582892 
102*1956.582892 102*1954.208799 
102*1954.208799 102*1951.834705 
102*2072.913482 102*2070.539389 
102*2070.539389 102*2068.165295 
102*2068.165295 102*2065.791201 
102*2065.791201 102*2063.417108 
102*2063.417108 102*2061.043014 
102*2061.043014 102*2058.668920 
102*2058.668920 102*2056.294827 
102*2056.294827 102*2053.920733 
102*2053.920733 102*2051.546639 
102*2051.546639 102*2049.172546 
102*2049.172546 102*2046.798452 
102*2046.798452 102*2044.424358 
102*2044.424358 102*2042.050265 
102*2042.050265 102*2039.676171 
102*2039.676171 102*2037.302077 
102*2037.302077 102*2034.927984 
102*2034.927984 102*2032.553890 
102*2032.553890 102*2030.179796 
102*2030.179796 102*2027.805703 
102*2027.805703 102*2025.431609 
102*2025.431609 102*2023.057515 
102*2023.057515 102*2020.683422 
102*2020.683422 102*2018.309328 
102*2018.309328 102*2015.935234 
102*2015.935234 102*2013.561141 
102*2013.561141 102*2011.187047 
102*2011.187047 102*2008.812953 
102*2008.812953 102*2006.438859 
102*2006.438859 102*2004.064766 
102*2004.064766 102*2001.690672 
102*2001.690672 102*1999.316578 
102*1999.316578 102*1996.942485 
102*1996.942485 102*1994.568391 
102*1994.568391 102*1992.194297 
102*1992.194297 102*1989.820204 
102*1989.820204 102*1987.446110 
102*1987.446110 102*1985.072016 
102*1985.072016 102*1982.697923 
102*1982.697923 102*1980.323829 
102*1980.323829 102*1977.949735 
102*1977.949735 102*1975.575642 
102*1975.575642 102*1973.201548 
102*1973.201548 102*1970.827454 
102*1970.827454 102*1968.453361 
102*1968.453361 102*1966.079267 
102*1966.079267 102*1963.705173 
102*1963.705173 102*1961.331080 
102*1961.331080 102*1958.956986 
102*1958.956986 102*1956.582892 
102*1956.582892 102*1954.208799 
102*1954.208799 102*1951.834705 
102*2075.413482 102*2073.039389 
102*2073.039389 102*2070.665295 
102*2070.665295 102*2068.291201 
102*2068.291201 102*2065.917108 
102*2065.917108 102*2063.543014 
102*2063.543014 102*2061.168920 
102*2061.168920 102*2058.794827 
102*2058.794827 102*2056.420733 
102*2056.420733 102*2054.046639 
102*2054.046639 102*2051.672546 
102*2051.672546 102*2049.298452 
102*2049.298452 102*2046.924358 
102*2046.924358 102*2044.550265 
102*2044.550265 102*2042.176171 
102*2042.176171 102*2039.802077 
102*2039.802077 102*2037.427984 
102*2037.427984 102*2035.053890 
102*2035.053890 102*2032.679796 
102*2032.679796 102*2030.305703 
102*2030.305703 102*2027.931609 
102*2027.931609 102*2025.557515 
102*2025.557515 102*2023.183422 
102*2023.183422 102*2020.809328 
102*2020.809328 102*2018.435234 
102*2018.435234 102*2016.061141 
102*2016.061141 102*2013.687047 
102*2013.687047 102*2011.312953 
102*2011.312953 102*2008.938859 
102*2008.938859 102*2006.564766 
102*2006.564766 102*2004.190672 
102*2004.190672 102*2001.816578 
102*2001.816578 102*1999.442485 
102*1999.442485 102*1997.068391 
102*1997.068391 102*1994.694297 
102*1994.694297 102*1992.320204 
102*1992.320204 102*1989.946110 
102*1989.946110 102*1987.572016 
102*1987.572016 102*1985.197923 
102*1985.197923 102*1982.823829 
102*1982.823829 102*1980.449735 
102*1980.449735 102*1978.075642 
102*1978.075642 102*1975.701548 
102*1975.701548 102*1973.327454 
102*1973.327454 102*1970.953361 
102*1970.953361 102*1968.579267 
102*1968.579267 102*1966.205173 
102*1966.205173 102*1963.831080 
102*1963.831080 102*1961.456986 
102*1961.456986 102*1959.082892 
102*1959.082892 102*1956.708799 
102*1956.708799 102*1954.334705 
102*2075.413482 102*2073.039389 
102*2073.039389 102*2070.665295 
102*2070.665295 102*2068.291201 
102*2068.291201 102*2065.917108 
102*2065.917108 102*2063.543014 
102*2063.543014 102*2061.168920 
102*2061.168920 102*2058.794827 
102*2058.794827 102*2056.420733 
102*2056.420733 102*2054.046639 
102*2054.046639 102*2051.672546 
102*2051.672546 102*2049.298452 
102*2049.298452 102*2046.924358 
102*2046.924358 102*2044.550265 
102*2044.550265 102*2042.176171 
102*2042.176171 102*2039.802077 
102*2039.802077 102*2037.427984 
102*2037.427984 102*2035.053890 
102*2035.053890 102*2032.679796 
102*2032.679796 102*2030.305703 
102*2030.305703 102*2027.931609 
102*2027.931609 102*2025.557515 
102*2025.557515 102*2023.183422 
102*2023.183422 102*2020.809328 
102*2020.809328 102*2018.435234 
102*2018.435234 102*2016.061141 
102*2016.061141 102*2013.687047 
102*2013.687047 102*2011.312953 
102*2011.312953 102*2008.938859 
102*2008.938859 102*2006.564766 
102*2006.564766 102*2004.190672 
102*2004.190672 102*2001.816578 
102*2001.816578 102*1999.442485 
102*1999.442485 102*1997.068391 
102*1997.068391 102*1994.694297 
102*1994.694297 102*1992.320204 
102*1992.320204 102*1989.946110 
102*1989.946110 102*1987.572016 
102*1987.572016 102*1985.197923 
102*1985.197923 102*1982.823829 
102*1982.823829 102*1980.449735 
102*1980.449735 102*1978.075642 
102*1978.075642 102*1975.701548 
102*1975.701548 102*1973.327454 
102*1973.327454 102*1970.953361 
102*1970.953361 102*1968.579267 
102*1968.579267 102*1966.205173 
102*1966.205173 102*1963.831080 
102*1963.831080 102*1961.456986 
102*1961.456986 102*1959.082892 
102*1959.082892 102*1956.708799 
102*1956.708799 102*1954.334705 
102*2077.913482 102*2075.539389 
102*2075.539389 102*2073.165295 
102*2073.165295 102*2070.791201 
102*2070.791201 102*2068.417108 
102*2068.417108 102*2066.043014 
102*2066.043014 102*2063.668920 
102*2063.668920 102*2061.294827 
102*2061.294827 102*2058.920733 
102*2058.920733 102*2056.546639 
102*2056.546639 102*2054.172546 
102*2054.172546 102*2051.798452 
102*2051.798452 102*2049.424358 
102*2049.424358 102*2047.050265 
102*2047.050265 102*2044.676171 
102*2044.676171 102*2042.302077 
102*2042.302077 102*2039.927984 
102*2039.927984 102*2037.553890 
102*2037.553890 102*2035.179796 
102*2035.179796 102*2032.805703 
102*2032.805703 102*2030.431609 
102*2030.431609 102*2028.057515 
102*2028.057515 102*2025.683422 
102*2025.683422 102*2023.309328 
102*2023.309328 102*2020.935234 
102*2020.935234 102*2018.561141 
102*2018.561141 102*2016.187047 
102*2016.187047 102*2013.812953 
102*2013.812953 102*2011.438859 
102*2011.438859 102*2009.064766 
102*2009.064766 102*2006.690672 
102*2006.690672 102*2004.316578 
102*2004.316578 102*2001.942485 
102*2001.942485 102*1999.568391 
102*1999.568391 102*1997.194297 
102*1997.194297 102*1994.820204 
102*1994.820204 102*1992.446110 
102*1992.446110 102*1990.072016 
102*1990.072016 102*1987.697923 
102*1987.697923 102*1985.323829 
102*1985.323829 102*1982.949735 
102*1982.949735 102*1980.575642 
102*1980.575642 102*1978.201548 
102*1978.201548 102*1975.827454 
102*1975.827454 102*1973.453361 
102*1973.453361 102*1971.079267 
102*1971.079267 102*1968.705173 
102*1968.705173 102*1966.331080 
102*1966.331080 102*1963.956986 
102*1963.956986 102*1961.582892 
102*1961.582892 102*1959.208799 
102*1959.208799 102*1956.834705 
102*2077.913482 102*2075.539389 
102*2075.539389 102*2073.165295 
102*2073.165295 102*2070.791201 
102*2070.791201 102*2068.417108 
102*2068.417108 102*2066.043014 
102*2066.043014 102*2063.668920 
102*2063.668920 102*2061.294827 
102*2061.294827 102*2058.920733 
102*2058.920733 102*2056.546639 
102*2056.546639 102*2054.172546 
102*2054.172546 102*2051.798452 
102*2051.798452 102*2049.424358 
102*2049.424358 102*2047.050265 
102*2047.050265 102*2044.676171 
102*2044.676171 102*2042.302077 
102*2042.302077 102*2039.927984 
102*2039.927984 102*2037.553890 
102*2037.553890 102*2035.179796 
102*2035.179796 102*2032.805703 
102*2032.805703 102*2030.431609 
102*2030.431609 102*2028.057515 
102*2028.057515 102*2025.683422 
102*2025.683422 102*2023.309328 
102*2023.309328 102*2020.935234 
102*2020.935234 102*2018.561141 
102*2018.561141 102*2016.187047 
102*2016.187047 102*2013.812953 
102*2013.812953 102*2011.438859 
102*2011.438859 102*2009.064766 
102*2009.064766 102*2006.690672 
102*2006.690672 102*2004.316578 
102*2004.316578 102*2001.942485 
102*2001.942485 102*1999.568391 
102*1999.568391 102*1997.194297 
102*1997.194297 102*1994.820204 
102*1994.820204 102*1992.446110 
102*1992.446110 102*1990.072016 
102*1990.072016 102*1987.697923 
102*1987.697923 102*1985.323829 
102*1985.323829 102*1982.949735 
102*1982.949735 102*1980.575642 
102*1980.575642 102*1978.201548 
102*1978.201548 102*1975.827454 
102*1975.827454 102*1973.453361 
102*1973.453361 102*1971.079267 
102*1971.079267 102*1968.705173 
102*1968.705173 102*1966.331080 
102*1966.331080 102*1963.956986 
102*1963.956986 102*1961.582892 
102*1961.582892 102*1959.208799 
102*1959.208799 102*1956.834705 
102*2080.413482 102*2078.039389 
102*2078.039389 102*2075.665295 
102*2075.665295 102*2073.291201 
102*2073.291201 102*2070.917108 
102*2070.917108 102*2068.543014 
102*2068.543014 102*2066.168920 
102*2066.168920 102*2063.794827 
102*2063.794827 102*2061.420733 
102*2061.420733 102*2059.046639 
102*2059.046639 102*2056.672546 
102*2056.672546 102*2054.298452 
102*2054.298452 102*2051.924358 
102*2051.924358 102*2049.550265 
102*2049.550265 102*2047.176171 
102*2047.176171 102*2044.802077 
102*2044.802077 102*2042.427984 
102*2042.427984 102*2040.053890 
102*2040.053890 102*2037.679796 
102*2037.679796 102*2035.305703 
102*2035.305703 102*2032.931609 
102*2032.931609 102*2030.557515 
102*2030.557515 102*2028.183422 
102*2028.183422 102*2025.809328 
102*2025.809328 102*2023.435234 
102*2023.435234 102*2021.061141 
102*2021.061141 102*2018.687047 
102*2018.687047 102*2016.312953 
102*2016.312953 102*2013.938859 
102*2013.938859 102*2011.564766 
102*2011.564766 102*2009.190672 
102*2009.190672 102*2006.816578 
102*2006.816578 102*2004.442485 
102*2004.442485 102*2002.068391 
102*2002.068391 102*1999.694297 
102*1999.694297 102*1997.320204 
102*1997.320204 102*1994.946110 
102*1994.946110 102*1992.572016 
102*1992.572016 102*1990.197923 
102*1990.197923 102*1987.823829 
102*1987.823829 102*1985.449735 
102*1985.449735 102*1983.075642 
102*1983.075642 102*1980.701548 
102*1980.701548 102*1978.327454 
102*1978.327454 102*1975.953361 
102*1975.953361 102*1973.579267 
102*1973.579267 102*1971.205173 
102*1971.205173 102*1968.831080 
102*1968.831080 102*1966.456986 
102*1966.456986 102*1964.082892 
102*1964.082892 102*1961.708799 
102*1961.708799 102*1959.334705 
102*2080.413482 102*2078.039389 
102*2078.039389 102*2075.665295 
102*2075.665295 102*2073.291201 
102*2073.291201 102*2070.917108 
102*2070.917108 102*2068.543014 
102*2068.543014 102*2066.168920 
102*2066.168920 102*2063.794827 
102*2063.794827 102*2061.420733 
102*2061.420733 102*2059.046639 
102*2059.046639 102*2056.672546 
102*2056.672546 102*2054.298452 
102*2054.298452 102*2051.924358 
102*2051.924358 102*2049.550265 
102*2049.550265 102*2047.176171 
102*2047.176171 102*2044.802077 
102*2044.802077 102*2042.427984 
102*2042.427984 102*2040.053890 
102*2040.053890 102*2037.679796 
102*2037.679796 102*2035.305703 
102*2035.305703 102*2032.931609 
102*2032.931609 102*2030.557515 
102*2030.557515 102*2028.183422 
102*2028.183422 102*2025.809328 
102*2025.809328 102*2023.435234 
102*2023.435234 102*2021.061141 
102*2021.061141 102*2018.687047 
102*2018.687047 102*2016.312953 
102*2016.312953 102*2013.938859 
102*2013.938859 102*2011.564766 
102*2011.564766 102*2009.190672 
102*2009.190672 102*2006.816578 
102*2006.816578 102*2004.442485 
102*2004.442485 102*2002.068391 
102*2002.068391 102*1999.694297 
102*1999.694297 102*1997.320204 
102*1997.320204 102*1994.946110 
102*1994.946110 102*1992.572016 
102*1992.572016 102*1990.197923 
102*1990.197923 102*1987.823829 
102*1987.823829 102*1985.449735 
102*1985.449735 102*1983.075642 
102*1983.075642 102*1980.701548 
102*1980.701548 102*1978.327454 
102*1978.327454 102*1975.953361 
102*1975.953361 102*1973.579267 
102*1973.579267 102*1971.205173 
102*1971.205173 102*1968.831080 
102*1968.831080 102*1966.456986 
102*1966.456986 102*1964.082892 
102*1964.082892 102*1961.708799 
102*1961.708799 102*1959.334705 
102*2082.913482 102*2080.539389 
102*2080.539389 102*2078.165295 
102*2078.165295 102*2075.791201 
102*2075.791201 102*2073.417108 
102*2073.417108 102*2071.043014 
102*2071.043014 102*2068.668920 
102*2068.668920 102*2066.294827 
102*2066.294827 102*2063.920733 
102*2063.920733 102*2061.546639 
102*2061.546639 102*2059.172546 
102*2059.172546 102*2056.798452 
102*2056.798452 102*2054.424358 
102*2054.424358 102*2052.050265 
102*2052.050265 102*2049.676171 
102*2049.676171 102*2047.302077 
102*2047.302077 102*2044.927984 
102*2044.927984 102*2042.553890 
102*2042.553890 102*2040.179796 
102*2040.179796 102*2037.805703 
102*2037.805703 102*2035.431609 
102*2035.431609 102*2033.057515 
102*2033.057515 102*2030.683422 
102*2030.683422 102*2028.309328 
102*2028.309328 102*2025.935234 
102*2025.935234 102*2023.561141 
102*2023.561141 102*2021.187047 
102*2021.187047 102*2018.812953 
102*2018.812953 102*2016.438859 
102*2016.438859 102*2014.064766 
102*2014.064766 102*2011.690672 
102*2011.690672 102*2009.316578 
102*2009.316578 102*2006.942485 
102*2006.942485 102*2004.568391 
102*2004.568391 102*2002.194297 
102*2002.194297 102*1999.820204 
102*1999.820204 102*1997.446110 
102*1997.446110 102*1995.072016 
102*1995.072016 102*1992.697923 
102*1992.697923 102*1990.323829 
102*1990.323829 102*1987.949735 
102*1987.949735 102*1985.575642 
102*1985.575642 102*1983.201548 
102*1983.201548 102*1980.827454 
102*1980.827454 102*1978.453361 
102*1978.453361 102*1976.079267 
102*1976.079267 102*1973.705173 
102*1973.705173 102*1971.331080 
102*1971.331080 102*1968.956986 
102*1968.956986 102*1966.582892 
102*1966.582892 102*1964.208799 
102*1964.208799 102*1961.834705 
102*2082.913482 102*2080.539389 
102*2080.539389 102*2078.165295 
102*2078.165295 102*2075.791201 
102*2075.791201 102*2073.417108 
102*2073.417108 102*2071.043014 
102*2071.043014 102*2068.668920 
102*2068.668920 102*2066.294827 
102*2066.294827 102*2063.920733 
102*2063.920733 102*2061.546639 
102*2061.546639 102*2059.172546 
102*2059.172546 102*2056.798452 
102*2056.798452 102*2054.424358 
102*2054.424358 102*2052.050265 
102*2052.050265 102*2049.676171 
102*2049.676171 102*2047.302077 
102*2047.302077 102*2044.927984 
102*2044.927984 102*2042.553890 
102*2042.553890 102*2040.179796 
102*2040.179796 102*2037.805703 
102*2037.805703 102*2035.431609 
102*2035.431609 102*2033.057515 
102*2033.057515 102*2030.683422 
102*2030.683422 102*2028.309328 
102*2028.309328 102*2025.935234 
102*2025.935234 102*2023.561141 
102*2023.561141 102*2021.187047 
102*2021.187047 102*2018.812953 
102*2018.812953 102*2016.438859 
102*2016.438859 102*2014.064766 
102*2014.064766 102*2011.690672 
102*2011.690672 102*2009.316578 
102*2009.316578 102*2006.942485 
102*2006.942485 102*2004.568391 
102*2004.568391 102*2002.194297 
102*2002.194297 102*1999.820204 
102*1999.820204 102*1997.446110 
102*1997.446110 102*1995.072016 
102*1995.072016 102*1992.697923 
102*1992.697923 102*1990.323829 
102*1990.323829 102*1987.949735 
102*1987.949735 102*1985.575642 
102*1985.575642 102*1983.201548 
102*1983.201548 102*1980.827454 
102*1980.827454 102*1978.453361 
102*1978.453361 102*1976.079267 
102*1976.079267 102*1973.705173 
102*1973.705173 102*1971.331080 
102*1971.331080 102*1968.956986 
102*1968.956986 102*1966.582892 
102*1966.582892 102*1964.208799 
102*1964.208799 102*1961.834705 
102*2085.413482 102*2083.039389 
102*2083.039389 102*2080.665295 
102*2080.665295 102*2078.291201 
102*2078.291201 102*2075.917108 
102*2075.917108 102*2073.543014 
102*2073.543014 102*2071.168920 
102*2071.168920 102*2068.794827 
102*2068.794827 102*2066.420733 
102*2066.420733 102*2064.046639 
102*2064.046639 102*2061.672546 
102*2061.672546 102*2059.298452 
102*2059.298452 102*2056.924358 
102*2056.924358 102*2054.550265 
102*2054.550265 102*2052.176171 
102*2052.176171 102*2049.802077 
102*2049.802077 102*2047.427984 
102*2047.427984 102*2045.053890 
102*2045.053890 102*2042.679796 
102*2042.679796 102*2040.305703 
102*2040.305703 102*2037.931609 
102*2037.931609 102*2035.557515 
102*2035.557515 102*2033.183422 
102*2033.183422 102*2030.809328 
102*2030.809328 102*2028.435234 
102*2028.435234 102*2026.061141 
102*2026.061141 102*2023.687047 
102*2023.687047 102*2021.312953 
102*2021.312953 102*2018.938859 
102*2018.938859 102*2016.564766 
102*2016.564766 102*2014.190672 
102*2014.190672 102*2011.816578 
102*2011.816578 102*2009.442485 
102*2009.442485 102*2007.068391 
102*2007.068391 102*2004.694297 
102*2004.694297 102*2002.320204 
102*2002.320204 102*1999.946110 
102*1999.946110 102*1997.572016 
102*1997.572016 102*1995.197923 
102*1995.197923 102*1992.823829 
102*1992.823829 102*1990.449735 
102*1990.449735 102*1988.075642 