ZCORN
102*2095.318599 102*2091.721671 
102*2091.721671 102*2088.124743 
102*2088.124743 102*2084.527815 
102*2084.527815 102*2080.930886 
102*2080.930886 102*2077.333958 
102*2077.333958 102*2073.737030 
102*2073.737030 102*2070.140101 
102*2070.140101 102*2066.543173 
102*2066.543173 102*2062.946245 
102*2062.946245 102*2059.349317 
102*2059.349317 102*2055.752388 
102*2055.752388 102*2052.155460 
102*2052.155460 102*2048.558532 
102*2048.558532 102*2044.961603 
102*2044.961603 102*2041.364675 
102*2041.364675 102*2037.767747 
102*2037.767747 102*2034.170819 
102*2034.170819 102*2030.573890 
102*2030.573890 102*2026.976962 
102*2026.976962 102*2023.380034 
102*2023.380034 102*2019.783106 
102*2019.783106 102*2016.186177 
102*2016.186177 102*2012.589249 
102*2012.589249 102*2008.992321 
102*2008.992321 102*2005.395392 
102*2005.395392 102*2001.798464 
102*2001.798464 102*1998.201536 
102*1998.201536 102*1994.604608 
102*1994.604608 102*1991.007679 
102*1991.007679 102*1987.410751 
102*1987.410751 102*1983.813823 
102*1983.813823 102*1980.216894 
102*1980.216894 102*1976.619966 
102*1976.619966 102*1973.023038 
102*1973.023038 102*1969.426110 
102*1969.426110 102*1965.829181 
102*1965.829181 102*1962.232253 
102*1962.232253 102*1958.635325 
102*1958.635325 102*1955.038397 
102*1955.038397 102*1951.441468 
102*1951.441468 102*1947.844540 
102*1947.844540 102*1944.247612 
102*1944.247612 102*1940.650683 
102*1940.650683 102*1937.053755 
102*1937.053755 102*1933.456827 
102*1933.456827 102*1929.859899 
102*1929.859899 102*1926.262970 
102*1926.262970 102*1922.666042 
102*1922.666042 102*1919.069114 
102*1919.069114 102*1915.472185 
102*1915.472185 102*1911.875257 
102*2097.818599 102*2094.221671 
102*2094.221671 102*2090.624743 
102*2090.624743 102*2087.027815 
102*2087.027815 102*2083.430886 
102*2083.430886 102*2079.833958 
102*2079.833958 102*2076.237030 
102*2076.237030 102*2072.640101 
102*2072.640101 102*2069.043173 
102*2069.043173 102*2065.446245 
102*2065.446245 102*2061.849317 
102*2061.849317 102*2058.252388 
102*2058.252388 102*2054.655460 
102*2054.655460 102*2051.058532 
102*2051.058532 102*2047.461603 
102*2047.461603 102*2043.864675 
102*2043.864675 102*2040.267747 
102*2040.267747 102*2036.670819 
102*2036.670819 102*2033.073890 
102*2033.073890 102*2029.476962 
102*2029.476962 102*2025.880034 
102*2025.880034 102*2022.283106 
102*2022.283106 102*2018.686177 
102*2018.686177 102*2015.089249 
102*2015.089249 102*2011.492321 
102*2011.492321 102*2007.895392 
102*2007.895392 102*2004.298464 
102*2004.298464 102*2000.701536 
102*2000.701536 102*1997.104608 
102*1997.104608 102*1993.507679 
102*1993.507679 102*1989.910751 
102*1989.910751 102*1986.313823 
102*1986.313823 102*1982.716894 
102*1982.716894 102*1979.119966 
102*1979.119966 102*1975.523038 
102*1975.523038 102*1971.926110 
102*1971.926110 102*1968.329181 
102*1968.329181 102*1964.732253 
102*1964.732253 102*1961.135325 
102*1961.135325 102*1957.538397 
102*1957.538397 102*1953.941468 
102*1953.941468 102*1950.344540 
102*1950.344540 102*1946.747612 
102*1946.747612 102*1943.150683 
102*1943.150683 102*1939.553755 
102*1939.553755 102*1935.956827 
102*1935.956827 102*1932.359899 
102*1932.359899 102*1928.762970 
102*1928.762970 102*1925.166042 
102*1925.166042 102*1921.569114 
102*1921.569114 102*1917.972185 
102*1917.972185 102*1914.375257 
102*2097.818599 102*2094.221671 
102*2094.221671 102*2090.624743 
102*2090.624743 102*2087.027815 
102*2087.027815 102*2083.430886 
102*2083.430886 102*2079.833958 
102*2079.833958 102*2076.237030 
102*2076.237030 102*2072.640101 
102*2072.640101 102*2069.043173 
102*2069.043173 102*2065.446245 
102*2065.446245 102*2061.849317 
102*2061.849317 102*2058.252388 
102*2058.252388 102*2054.655460 
102*2054.655460 102*2051.058532 
102*2051.058532 102*2047.461603 
102*2047.461603 102*2043.864675 
102*2043.864675 102*2040.267747 
102*2040.267747 102*2036.670819 
102*2036.670819 102*2033.073890 
102*2033.073890 102*2029.476962 
102*2029.476962 102*2025.880034 
102*2025.880034 102*2022.283106 
102*2022.283106 102*2018.686177 
102*2018.686177 102*2015.089249 
102*2015.089249 102*2011.492321 
102*2011.492321 102*2007.895392 
102*2007.895392 102*2004.298464 
102*2004.298464 102*2000.701536 
102*2000.701536 102*1997.104608 
102*1997.104608 102*1993.507679 
102*1993.507679 102*1989.910751 
102*1989.910751 102*1986.313823 
102*1986.313823 102*1982.716894 
102*1982.716894 102*1979.119966 
102*1979.119966 102*1975.523038 
102*1975.523038 102*1971.926110 
102*1971.926110 102*1968.329181 
102*1968.329181 102*1964.732253 
102*1964.732253 102*1961.135325 
102*1961.135325 102*1957.538397 
102*1957.538397 102*1953.941468 
102*1953.941468 102*1950.344540 
102*1950.344540 102*1946.747612 
102*1946.747612 102*1943.150683 
102*1943.150683 102*1939.553755 
102*1939.553755 102*1935.956827 
102*1935.956827 102*1932.359899 
102*1932.359899 102*1928.762970 
102*1928.762970 102*1925.166042 
102*1925.166042 102*1921.569114 
102*1921.569114 102*1917.972185 
102*1917.972185 102*1914.375257 
102*2100.318599 102*2096.721671 
102*2096.721671 102*2093.124743 
102*2093.124743 102*2089.527815 
102*2089.527815 102*2085.930886 
102*2085.930886 102*2082.333958 
102*2082.333958 102*2078.737030 
102*2078.737030 102*2075.140101 
102*2075.140101 102*2071.543173 
102*2071.543173 102*2067.946245 
102*2067.946245 102*2064.349317 
102*2064.349317 102*2060.752388 
102*2060.752388 102*2057.155460 
102*2057.155460 102*2053.558532 
102*2053.558532 102*2049.961603 
102*2049.961603 102*2046.364675 
102*2046.364675 102*2042.767747 
102*2042.767747 102*2039.170819 
102*2039.170819 102*2035.573890 
102*2035.573890 102*2031.976962 
102*2031.976962 102*2028.380034 
102*2028.380034 102*2024.783106 
102*2024.783106 102*2021.186177 
102*2021.186177 102*2017.589249 
102*2017.589249 102*2013.992321 
102*2013.992321 102*2010.395392 
102*2010.395392 102*2006.798464 
102*2006.798464 102*2003.201536 
102*2003.201536 102*1999.604608 
102*1999.604608 102*1996.007679 
102*1996.007679 102*1992.410751 
102*1992.410751 102*1988.813823 
102*1988.813823 102*1985.216894 
102*1985.216894 102*1981.619966 
102*1981.619966 102*1978.023038 
102*1978.023038 102*1974.426110 
102*1974.426110 102*1970.829181 
102*1970.829181 102*1967.232253 
102*1967.232253 102*1963.635325 
102*1963.635325 102*1960.038397 
102*1960.038397 102*1956.441468 
102*1956.441468 102*1952.844540 
102*1952.844540 102*1949.247612 
102*1949.247612 102*1945.650683 
102*1945.650683 102*1942.053755 
102*1942.053755 102*1938.456827 
102*1938.456827 102*1934.859899 
102*1934.859899 102*1931.262970 
102*1931.262970 102*1927.666042 
102*1927.666042 102*1924.069114 
102*1924.069114 102*1920.472185 
102*1920.472185 102*1916.875257 
102*2100.318599 102*2096.721671 
102*2096.721671 102*2093.124743 
102*2093.124743 102*2089.527815 
102*2089.527815 102*2085.930886 
102*2085.930886 102*2082.333958 
102*2082.333958 102*2078.737030 
102*2078.737030 102*2075.140101 
102*2075.140101 102*2071.543173 
102*2071.543173 102*2067.946245 
102*2067.946245 102*2064.349317 
102*2064.349317 102*2060.752388 
102*2060.752388 102*2057.155460 
102*2057.155460 102*2053.558532 
102*2053.558532 102*2049.961603 
102*2049.961603 102*2046.364675 
102*2046.364675 102*2042.767747 
102*2042.767747 102*2039.170819 
102*2039.170819 102*2035.573890 
102*2035.573890 102*2031.976962 
102*2031.976962 102*2028.380034 
102*2028.380034 102*2024.783106 
102*2024.783106 102*2021.186177 
102*2021.186177 102*2017.589249 
102*2017.589249 102*2013.992321 
102*2013.992321 102*2010.395392 
102*2010.395392 102*2006.798464 
102*2006.798464 102*2003.201536 
102*2003.201536 102*1999.604608 
102*1999.604608 102*1996.007679 
102*1996.007679 102*1992.410751 
102*1992.410751 102*1988.813823 
102*1988.813823 102*1985.216894 
102*1985.216894 102*1981.619966 
102*1981.619966 102*1978.023038 
102*1978.023038 102*1974.426110 
102*1974.426110 102*1970.829181 
102*1970.829181 102*1967.232253 
102*1967.232253 102*1963.635325 
102*1963.635325 102*1960.038397 
102*1960.038397 102*1956.441468 
102*1956.441468 102*1952.844540 
102*1952.844540 102*1949.247612 
102*1949.247612 102*1945.650683 
102*1945.650683 102*1942.053755 
102*1942.053755 102*1938.456827 
102*1938.456827 102*1934.859899 
102*1934.859899 102*1931.262970 
102*1931.262970 102*1927.666042 
102*1927.666042 102*1924.069114 
102*1924.069114 102*1920.472185 
102*1920.472185 102*1916.875257 
102*2102.818599 102*2099.221671 
102*2099.221671 102*2095.624743 
102*2095.624743 102*2092.027815 
102*2092.027815 102*2088.430886 
102*2088.430886 102*2084.833958 
102*2084.833958 102*2081.237030 
102*2081.237030 102*2077.640101 
102*2077.640101 102*2074.043173 
102*2074.043173 102*2070.446245 
102*2070.446245 102*2066.849317 
102*2066.849317 102*2063.252388 
102*2063.252388 102*2059.655460 
102*2059.655460 102*2056.058532 
102*2056.058532 102*2052.461603 
102*2052.461603 102*2048.864675 
102*2048.864675 102*2045.267747 
102*2045.267747 102*2041.670819 
102*2041.670819 102*2038.073890 
102*2038.073890 102*2034.476962 
102*2034.476962 102*2030.880034 
102*2030.880034 102*2027.283106 
102*2027.283106 102*2023.686177 
102*2023.686177 102*2020.089249 
102*2020.089249 102*2016.492321 
102*2016.492321 102*2012.895392 
102*2012.895392 102*2009.298464 
102*2009.298464 102*2005.701536 
102*2005.701536 102*2002.104608 
102*2002.104608 102*1998.507679 
102*1998.507679 102*1994.910751 
102*1994.910751 102*1991.313823 
102*1991.313823 102*1987.716894 
102*1987.716894 102*1984.119966 
102*1984.119966 102*1980.523038 
102*1980.523038 102*1976.926110 
102*1976.926110 102*1973.329181 
102*1973.329181 102*1969.732253 
102*1969.732253 102*1966.135325 
102*1966.135325 102*1962.538397 
102*1962.538397 102*1958.941468 
102*1958.941468 102*1955.344540 
102*1955.344540 102*1951.747612 
102*1951.747612 102*1948.150683 
102*1948.150683 102*1944.553755 
102*1944.553755 102*1940.956827 
102*1940.956827 102*1937.359899 
102*1937.359899 102*1933.762970 
102*1933.762970 102*1930.166042 
102*1930.166042 102*1926.569114 
102*1926.569114 102*1922.972185 
102*1922.972185 102*1919.375257 
102*2102.818599 102*2099.221671 
102*2099.221671 102*2095.624743 
102*2095.624743 102*2092.027815 
102*2092.027815 102*2088.430886 
102*2088.430886 102*2084.833958 
102*2084.833958 102*2081.237030 
102*2081.237030 102*2077.640101 
102*2077.640101 102*2074.043173 
102*2074.043173 102*2070.446245 
102*2070.446245 102*2066.849317 
102*2066.849317 102*2063.252388 
102*2063.252388 102*2059.655460 
102*2059.655460 102*2056.058532 
102*2056.058532 102*2052.461603 
102*2052.461603 102*2048.864675 
102*2048.864675 102*2045.267747 
102*2045.267747 102*2041.670819 
102*2041.670819 102*2038.073890 
102*2038.073890 102*2034.476962 
102*2034.476962 102*2030.880034 
102*2030.880034 102*2027.283106 
102*2027.283106 102*2023.686177 
102*2023.686177 102*2020.089249 
102*2020.089249 102*2016.492321 
102*2016.492321 102*2012.895392 
102*2012.895392 102*2009.298464 
102*2009.298464 102*2005.701536 
102*2005.701536 102*2002.104608 
102*2002.104608 102*1998.507679 
102*1998.507679 102*1994.910751 
102*1994.910751 102*1991.313823 
102*1991.313823 102*1987.716894 
102*1987.716894 102*1984.119966 
102*1984.119966 102*1980.523038 
102*1980.523038 102*1976.926110 
102*1976.926110 102*1973.329181 
102*1973.329181 102*1969.732253 
102*1969.732253 102*1966.135325 
102*1966.135325 102*1962.538397 
102*1962.538397 102*1958.941468 
102*1958.941468 102*1955.344540 
102*1955.344540 102*1951.747612 
102*1951.747612 102*1948.150683 
102*1948.150683 102*1944.553755 
102*1944.553755 102*1940.956827 
102*1940.956827 102*1937.359899 
102*1937.359899 102*1933.762970 
102*1933.762970 102*1930.166042 
102*1930.166042 102*1926.569114 
102*1926.569114 102*1922.972185 
102*1922.972185 102*1919.375257 
102*2105.318599 102*2101.721671 
102*2101.721671 102*2098.124743 
102*2098.124743 102*2094.527815 
102*2094.527815 102*2090.930886 
102*2090.930886 102*2087.333958 
102*2087.333958 102*2083.737030 
102*2083.737030 102*2080.140101 
102*2080.140101 102*2076.543173 
102*2076.543173 102*2072.946245 
102*2072.946245 102*2069.349317 
102*2069.349317 102*2065.752388 
102*2065.752388 102*2062.155460 
102*2062.155460 102*2058.558532 
102*2058.558532 102*2054.961603 
102*2054.961603 102*2051.364675 
102*2051.364675 102*2047.767747 
102*2047.767747 102*2044.170819 
102*2044.170819 102*2040.573890 
102*2040.573890 102*2036.976962 
102*2036.976962 102*2033.380034 
102*2033.380034 102*2029.783106 
102*2029.783106 102*2026.186177 
102*2026.186177 102*2022.589249 
102*2022.589249 102*2018.992321 
102*2018.992321 102*2015.395392 
102*2015.395392 102*2011.798464 
102*2011.798464 102*2008.201536 
102*2008.201536 102*2004.604608 
102*2004.604608 102*2001.007679 
102*2001.007679 102*1997.410751 
102*1997.410751 102*1993.813823 
102*1993.813823 102*1990.216894 
102*1990.216894 102*1986.619966 
102*1986.619966 102*1983.023038 
102*1983.023038 102*1979.426110 
102*1979.426110 102*1975.829181 
102*1975.829181 102*1972.232253 
102*1972.232253 102*1968.635325 
102*1968.635325 102*1965.038397 
102*1965.038397 102*1961.441468 
102*1961.441468 102*1957.844540 
102*1957.844540 102*1954.247612 
102*1954.247612 102*1950.650683 
102*1950.650683 102*1947.053755 
102*1947.053755 102*1943.456827 
102*1943.456827 102*1939.859899 
102*1939.859899 102*1936.262970 
102*1936.262970 102*1932.666042 
102*1932.666042 102*1929.069114 
102*1929.069114 102*1925.472185 
102*1925.472185 102*1921.875257 
102*2105.318599 102*2101.721671 
102*2101.721671 102*2098.124743 
102*2098.124743 102*2094.527815 
102*2094.527815 102*2090.930886 
102*2090.930886 102*2087.333958 
102*2087.333958 102*2083.737030 
102*2083.737030 102*2080.140101 
102*2080.140101 102*2076.543173 
102*2076.543173 102*2072.946245 
102*2072.946245 102*2069.349317 
102*2069.349317 102*2065.752388 
102*2065.752388 102*2062.155460 
102*2062.155460 102*2058.558532 
102*2058.558532 102*2054.961603 
102*2054.961603 102*2051.364675 
102*2051.364675 102*2047.767747 
102*2047.767747 102*2044.170819 
102*2044.170819 102*2040.573890 
102*2040.573890 102*2036.976962 
102*2036.976962 102*2033.380034 
102*2033.380034 102*2029.783106 
102*2029.783106 102*2026.186177 
102*2026.186177 102*2022.589249 
102*2022.589249 102*2018.992321 
102*2018.992321 102*2015.395392 
102*2015.395392 102*2011.798464 
102*2011.798464 102*2008.201536 
102*2008.201536 102*2004.604608 
102*2004.604608 102*2001.007679 
102*2001.007679 102*1997.410751 
102*1997.410751 102*1993.813823 
102*1993.813823 102*1990.216894 
102*1990.216894 102*1986.619966 
102*1986.619966 102*1983.023038 
102*1983.023038 102*1979.426110 
102*1979.426110 102*1975.829181 
102*1975.829181 102*1972.232253 
102*1972.232253 102*1968.635325 
102*1968.635325 102*1965.038397 
102*1965.038397 102*1961.441468 
102*1961.441468 102*1957.844540 
102*1957.844540 102*1954.247612 
102*1954.247612 102*1950.650683 
102*1950.650683 102*1947.053755 
102*1947.053755 102*1943.456827 
102*1943.456827 102*1939.859899 
102*1939.859899 102*1936.262970 
102*1936.262970 102*1932.666042 
102*1932.666042 102*1929.069114 
102*1929.069114 102*1925.472185 
102*1925.472185 102*1921.875257 
102*2107.818599 102*2104.221671 
102*2104.221671 102*2100.624743 
102*2100.624743 102*2097.027815 
102*2097.027815 102*2093.430886 
102*2093.430886 102*2089.833958 
102*2089.833958 102*2086.237030 
102*2086.237030 102*2082.640101 
102*2082.640101 102*2079.043173 
102*2079.043173 102*2075.446245 
102*2075.446245 102*2071.849317 
102*2071.849317 102*2068.252388 
102*2068.252388 102*2064.655460 
102*2064.655460 102*2061.058532 
102*2061.058532 102*2057.461603 
102*2057.461603 102*2053.864675 
102*2053.864675 102*2050.267747 
102*2050.267747 102*2046.670819 
102*2046.670819 102*2043.073890 
102*2043.073890 102*2039.476962 
102*2039.476962 102*2035.880034 
102*2035.880034 102*2032.283106 
102*2032.283106 102*2028.686177 
102*2028.686177 102*2025.089249 
102*2025.089249 102*2021.492321 
102*2021.492321 102*2017.895392 
102*2017.895392 102*2014.298464 
102*2014.298464 102*2010.701536 
102*2010.701536 102*2007.104608 
102*2007.104608 102*2003.507679 
102*2003.507679 102*1999.910751 
102*1999.910751 102*1996.313823 
102*1996.313823 102*1992.716894 
102*1992.716894 102*1989.119966 
102*1989.119966 102*1985.523038 
102*1985.523038 102*1981.926110 
102*1981.926110 102*1978.329181 
102*1978.329181 102*1974.732253 
102*1974.732253 102*1971.135325 
102*1971.135325 102*1967.538397 
102*1967.538397 102*1963.941468 
102*1963.941468 102*1960.344540 
102*1960.344540 102*1956.747612 
102*1956.747612 102*1953.150683 
102*1953.150683 102*1949.553755 
102*1949.553755 102*1945.956827 
102*1945.956827 102*1942.359899 
102*1942.359899 102*1938.762970 
102*1938.762970 102*1935.166042 
102*1935.166042 102*1931.569114 
102*1931.569114 102*1927.972185 
102*1927.972185 102*1924.375257 
102*2107.818599 102*2104.221671 
102*2104.221671 102*2100.624743 
102*2100.624743 102*2097.027815 
102*2097.027815 102*2093.430886 
102*2093.430886 102*2089.833958 
102*2089.833958 102*2086.237030 
102*2086.237030 102*2082.640101 
102*2082.640101 102*2079.043173 
102*2079.043173 102*2075.446245 
102*2075.446245 102*2071.849317 
102*2071.849317 102*2068.252388 
102*2068.252388 102*2064.655460 
102*2064.655460 102*2061.058532 
102*2061.058532 102*2057.461603 
102*2057.461603 102*2053.864675 
102*2053.864675 102*2050.267747 
102*2050.267747 102*2046.670819 
102*2046.670819 102*2043.073890 
102*2043.073890 102*2039.476962 
102*2039.476962 102*2035.880034 
102*2035.880034 102*2032.283106 
102*2032.283106 102*2028.686177 
102*2028.686177 102*2025.089249 
102*2025.089249 102*2021.492321 
102*2021.492321 102*2017.895392 
102*2017.895392 102*2014.298464 
102*2014.298464 102*2010.701536 
102*2010.701536 102*2007.104608 
102*2007.104608 102*2003.507679 
102*2003.507679 102*1999.910751 
102*1999.910751 102*1996.313823 
102*1996.313823 102*1992.716894 
102*1992.716894 102*1989.119966 
102*1989.119966 102*1985.523038 
102*1985.523038 102*1981.926110 
102*1981.926110 102*1978.329181 
102*1978.329181 102*1974.732253 
102*1974.732253 102*1971.135325 
102*1971.135325 102*1967.538397 
102*1967.538397 102*1963.941468 
102*1963.941468 102*1960.344540 
102*1960.344540 102*1956.747612 
102*1956.747612 102*1953.150683 
102*1953.150683 102*1949.553755 
102*1949.553755 102*1945.956827 
102*1945.956827 102*1942.359899 
102*1942.359899 102*1938.762970 
102*1938.762970 102*1935.166042 
102*1935.166042 102*1931.569114 
102*1931.569114 102*1927.972185 
102*1927.972185 102*1924.375257 
102*2110.318599 102*2106.721671 
102*2106.721671 102*2103.124743 
102*2103.124743 102*2099.527815 
102*2099.527815 102*2095.930886 
102*2095.930886 102*2092.333958 
102*2092.333958 102*2088.737030 
102*2088.737030 102*2085.140101 
102*2085.140101 102*2081.543173 
102*2081.543173 102*2077.946245 
102*2077.946245 102*2074.349317 
102*2074.349317 102*2070.752388 
102*2070.752388 102*2067.155460 
102*2067.155460 102*2063.558532 
102*2063.558532 102*2059.961603 
102*2059.961603 102*2056.364675 
102*2056.364675 102*2052.767747 
102*2052.767747 102*2049.170819 
102*2049.170819 102*2045.573890 
102*2045.573890 102*2041.976962 
102*2041.976962 102*2038.380034 
102*2038.380034 102*2034.783106 
102*2034.783106 102*2031.186177 
102*2031.186177 102*2027.589249 
102*2027.589249 102*2023.992321 
102*2023.992321 102*2020.395392 
102*2020.395392 102*2016.798464 
102*2016.798464 102*2013.201536 
102*2013.201536 102*2009.604608 
102*2009.604608 102*2006.007679 
102*2006.007679 102*2002.410751 
102*2002.410751 102*1998.813823 
102*1998.813823 102*1995.216894 
102*1995.216894 102*1991.619966 
102*1991.619966 102*1988.023038 
102*1988.023038 102*1984.426110 
102*1984.426110 102*1980.829181 
102*1980.829181 102*1977.232253 
102*1977.232253 102*1973.635325 
102*1973.635325 102*1970.038397 
102*1970.038397 102*1966.441468 
102*1966.441468 102*1962.844540 
102*1962.844540 102*1959.247612 
102*1959.247612 102*1955.650683 
102*1955.650683 102*1952.053755 
102*1952.053755 102*1948.456827 
102*1948.456827 102*1944.859899 
102*1944.859899 102*1941.262970 
102*1941.262970 102*1937.666042 
102*1937.666042 102*1934.069114 
102*1934.069114 102*1930.472185 
102*1930.472185 102*1926.875257 
102*2110.318599 102*2106.721671 
102*2106.721671 102*2103.124743 
102*2103.124743 102*2099.527815 
102*2099.527815 102*2095.930886 
102*2095.930886 102*2092.333958 
102*2092.333958 102*2088.737030 
102*2088.737030 102*2085.140101 
102*2085.140101 102*2081.543173 
102*2081.543173 102*2077.946245 
102*2077.946245 102*2074.349317 
102*2074.349317 102*2070.752388 
102*2070.752388 102*2067.155460 
102*2067.155460 102*2063.558532 
102*2063.558532 102*2059.961603 
102*2059.961603 102*2056.364675 
102*2056.364675 102*2052.767747 
102*2052.767747 102*2049.170819 
102*2049.170819 102*2045.573890 
102*2045.573890 102*2041.976962 
102*2041.976962 102*2038.380034 
102*2038.380034 102*2034.783106 
102*2034.783106 102*2031.186177 
102*2031.186177 102*2027.589249 
102*2027.589249 102*2023.992321 
102*2023.992321 102*2020.395392 
102*2020.395392 102*2016.798464 
102*2016.798464 102*2013.201536 
102*2013.201536 102*2009.604608 
102*2009.604608 102*2006.007679 
102*2006.007679 102*2002.410751 
102*2002.410751 102*1998.813823 
102*1998.813823 102*1995.216894 
102*1995.216894 102*1991.619966 
102*1991.619966 102*1988.023038 
102*1988.023038 102*1984.426110 
102*1984.426110 102*1980.829181 
102*1980.829181 102*1977.232253 
102*1977.232253 102*1973.635325 
102*1973.635325 102*1970.038397 
102*1970.038397 102*1966.441468 
102*1966.441468 102*1962.844540 
102*1962.844540 102*1959.247612 
102*1959.247612 102*1955.650683 
102*1955.650683 102*1952.053755 
102*1952.053755 102*1948.456827 
102*1948.456827 102*1944.859899 
102*1944.859899 102*1941.262970 
102*1941.262970 102*1937.666042 
102*1937.666042 102*1934.069114 
102*1934.069114 102*1930.472185 
102*1930.472185 102*1926.875257 
102*2112.818599 102*2109.221671 
102*2109.221671 102*2105.624743 
102*2105.624743 102*2102.027815 
102*2102.027815 102*2098.430886 
102*2098.430886 102*2094.833958 
102*2094.833958 102*2091.237030 
102*2091.237030 102*2087.640101 
102*2087.640101 102*2084.043173 
102*2084.043173 102*2080.446245 
102*2080.446245 102*2076.849317 
102*2076.849317 102*2073.252388 
102*2073.252388 102*2069.655460 
102*2069.655460 102*2066.058532 
102*2066.058532 102*2062.461603 
102*2062.461603 102*2058.864675 
102*2058.864675 102*2055.267747 
102*2055.267747 102*2051.670819 
102*2051.670819 102*2048.073890 
102*2048.073890 102*2044.476962 
102*2044.476962 102*2040.880034 
102*2040.880034 102*2037.283106 
102*2037.283106 102*2033.686177 
102*2033.686177 102*2030.089249 
102*2030.089249 102*2026.492321 
102*2026.492321 102*2022.895392 
102*2022.895392 102*2019.298464 
102*2019.298464 102*2015.701536 
102*2015.701536 102*2012.104608 
102*2012.104608 102*2008.507679 
102*2008.507679 102*2004.910751 
102*2004.910751 102*2001.313823 
102*2001.313823 102*1997.716894 
102*1997.716894 102*1994.119966 
102*1994.119966 102*1990.523038 
102*1990.523038 102*1986.926110 
102*1986.926110 102*1983.329181 
102*1983.329181 102*1979.732253 
102*1979.732253 102*1976.135325 
102*1976.135325 102*1972.538397 
102*1972.538397 102*1968.941468 
102*1968.941468 102*1965.344540 
102*1965.344540 102*1961.747612 
102*1961.747612 102*1958.150683 
102*1958.150683 102*1954.553755 
102*1954.553755 102*1950.956827 
102*1950.956827 102*1947.359899 
102*1947.359899 102*1943.762970 
102*1943.762970 102*1940.166042 
102*1940.166042 102*1936.569114 
102*1936.569114 102*1932.972185 
102*1932.972185 102*1929.375257 
102*2112.818599 102*2109.221671 
102*2109.221671 102*2105.624743 
102*2105.624743 102*2102.027815 
102*2102.027815 102*2098.430886 
102*2098.430886 102*2094.833958 
102*2094.833958 102*2091.237030 
102*2091.237030 102*2087.640101 
102*2087.640101 102*2084.043173 
102*2084.043173 102*2080.446245 
102*2080.446245 102*2076.849317 
102*2076.849317 102*2073.252388 
102*2073.252388 102*2069.655460 
102*2069.655460 102*2066.058532 
102*2066.058532 102*2062.461603 
102*2062.461603 102*2058.864675 
102*2058.864675 102*2055.267747 
102*2055.267747 102*2051.670819 
102*2051.670819 102*2048.073890 
102*2048.073890 102*2044.476962 
102*2044.476962 102*2040.880034 
102*2040.880034 102*2037.283106 
102*2037.283106 102*2033.686177 
102*2033.686177 102*2030.089249 
102*2030.089249 102*2026.492321 
102*2026.492321 102*2022.895392 
102*2022.895392 102*2019.298464 
102*2019.298464 102*2015.701536 
102*2015.701536 102*2012.104608 
102*2012.104608 102*2008.507679 
102*2008.507679 102*2004.910751 
102*2004.910751 102*2001.313823 
102*2001.313823 102*1997.716894 
102*1997.716894 102*1994.119966 
102*1994.119966 102*1990.523038 
102*1990.523038 102*1986.926110 
102*1986.926110 102*1983.329181 
102*1983.329181 102*1979.732253 
102*1979.732253 102*1976.135325 
102*1976.135325 102*1972.538397 
102*1972.538397 102*1968.941468 
102*1968.941468 102*1965.344540 
102*1965.344540 102*1961.747612 
102*1961.747612 102*1958.150683 
102*1958.150683 102*1954.553755 
102*1954.553755 102*1950.956827 
102*1950.956827 102*1947.359899 
102*1947.359899 102*1943.762970 
102*1943.762970 102*1940.166042 
102*1940.166042 102*1936.569114 
102*1936.569114 102*1932.972185 
102*1932.972185 102*1929.375257 
102*2115.318599 102*2111.721671 
102*2111.721671 102*2108.124743 
102*2108.124743 102*2104.527815 
102*2104.527815 102*2100.930886 
102*2100.930886 102*2097.333958 
102*2097.333958 102*2093.737030 
102*2093.737030 102*2090.140101 
102*2090.140101 102*2086.543173 
102*2086.543173 102*2082.946245 
102*2082.946245 102*2079.349317 
102*2079.349317 102*2075.752388 
102*2075.752388 102*2072.155460 
102*2072.155460 102*2068.558532 
102*2068.558532 102*2064.961603 
102*2064.961603 102*2061.364675 
102*2061.364675 102*2057.767747 
102*2057.767747 102*2054.170819 
102*2054.170819 102*2050.573890 
102*2050.573890 102*2046.976962 
102*2046.976962 102*2043.380034 
102*2043.380034 102*2039.783106 
102*2039.783106 102*2036.186177 
102*2036.186177 102*2032.589249 
102*2032.589249 102*2028.992321 
102*2028.992321 102*2025.395392 
102*2025.395392 102*2021.798464 
102*2021.798464 102*2018.201536 
102*2018.201536 102*2014.604608 
102*2014.604608 102*2011.007679 
102*2011.007679 102*2007.410751 
102*2007.410751 102*2003.813823 
102*2003.813823 102*2000.216894 
102*2000.216894 102*1996.619966 
102*1996.619966 102*1993.023038 
102*1993.023038 102*1989.426110 
102*1989.426110 102*1985.829181 
102*1985.829181 102*1982.232253 
102*1982.232253 102*1978.635325 
102*1978.635325 102*1975.038397 
102*1975.038397 102*1971.441468 
102*1971.441468 102*1967.844540 
102*1967.844540 102*1964.247612 
102*1964.247612 102*1960.650683 
102*1960.650683 102*1957.053755 
102*1957.053755 102*1953.456827 
102*1953.456827 102*1949.859899 
102*1949.859899 102*1946.262970 
102*1946.262970 102*1942.666042 
102*1942.666042 102*1939.069114 
102*1939.069114 102*1935.472185 
102*1935.472185 102*1931.875257 
102*2115.318599 102*2111.721671 
102*2111.721671 102*2108.124743 
102*2108.124743 102*2104.527815 
102*2104.527815 102*2100.930886 
102*2100.930886 102*2097.333958 
102*2097.333958 102*2093.737030 
102*2093.737030 102*2090.140101 
102*2090.140101 102*2086.543173 
102*2086.543173 102*2082.946245 
102*2082.946245 102*2079.349317 
102*2079.349317 102*2075.752388 
102*2075.752388 102*2072.155460 
102*2072.155460 102*2068.558532 
102*2068.558532 102*2064.961603 
102*2064.961603 102*2061.364675 
102*2061.364675 102*2057.767747 
102*2057.767747 102*2054.170819 
102*2054.170819 102*2050.573890 
102*2050.573890 102*2046.976962 
102*2046.976962 102*2043.380034 
102*2043.380034 102*2039.783106 
102*2039.783106 102*2036.186177 
102*2036.186177 102*2032.589249 
102*2032.589249 102*2028.992321 
102*2028.992321 102*2025.395392 
102*2025.395392 102*2021.798464 
102*2021.798464 102*2018.201536 
102*2018.201536 102*2014.604608 
102*2014.604608 102*2011.007679 
102*2011.007679 102*2007.410751 
102*2007.410751 102*2003.813823 
102*2003.813823 102*2000.216894 
102*2000.216894 102*1996.619966 
102*1996.619966 102*1993.023038 
102*1993.023038 102*1989.426110 
102*1989.426110 102*1985.829181 
102*1985.829181 102*1982.232253 
102*1982.232253 102*1978.635325 
102*1978.635325 102*1975.038397 
102*1975.038397 102*1971.441468 
102*1971.441468 102*1967.844540 
102*1967.844540 102*1964.247612 
102*1964.247612 102*1960.650683 
102*1960.650683 102*1957.053755 
102*1957.053755 102*1953.456827 
102*1953.456827 102*1949.859899 
102*1949.859899 102*1946.262970 
102*1946.262970 102*1942.666042 
102*1942.666042 102*1939.069114 
102*1939.069114 102*1935.472185 
102*1935.472185 102*1931.875257 
102*2117.818599 102*2114.221671 
102*2114.221671 102*2110.624743 
102*2110.624743 102*2107.027815 
102*2107.027815 102*2103.430886 
102*2103.430886 102*2099.833958 
102*2099.833958 102*2096.237030 
102*2096.237030 102*2092.640101 
102*2092.640101 102*2089.043173 
102*2089.043173 102*2085.446245 
102*2085.446245 102*2081.849317 
102*2081.849317 102*2078.252388 
102*2078.252388 102*2074.655460 
102*2074.655460 102*2071.058532 
102*2071.058532 102*2067.461603 
102*2067.461603 102*2063.864675 
102*2063.864675 102*2060.267747 
102*2060.267747 102*2056.670819 
102*2056.670819 102*2053.073890 
102*2053.073890 102*2049.476962 
102*2049.476962 102*2045.880034 
102*2045.880034 102*2042.283106 
102*2042.283106 102*2038.686177 
102*2038.686177 102*2035.089249 
102*2035.089249 102*2031.492321 
102*2031.492321 102*2027.895392 
102*2027.895392 102*2024.298464 
102*2024.298464 102*2020.701536 
102*2020.701536 102*2017.104608 
102*2017.104608 102*2013.507679 
102*2013.507679 102*2009.910751 
102*2009.910751 102*2006.313823 
102*2006.313823 102*2002.716894 
102*2002.716894 102*1999.119966 
102*1999.119966 102*1995.523038 
102*1995.523038 102*1991.926110 
102*1991.926110 102*1988.329181 
102*1988.329181 102*1984.732253 
102*1984.732253 102*1981.135325 
102*1981.135325 102*1977.538397 
102*1977.538397 102*1973.941468 
102*1973.941468 102*1970.344540 