ZCORN
102*2093.466203 102*2089.939176 
102*2089.939176 102*2086.412150 
102*2086.412150 102*2082.885123 
102*2082.885123 102*2079.358097 
102*2079.358097 102*2075.831070 
102*2075.831070 102*2072.304044 
102*2072.304044 102*2068.777017 
102*2068.777017 102*2065.249991 
102*2065.249991 102*2061.722964 
102*2061.722964 102*2058.195938 
102*2058.195938 102*2054.668911 
102*2054.668911 102*2051.141885 
102*2051.141885 102*2047.614858 
102*2047.614858 102*2044.087832 
102*2044.087832 102*2040.560805 
102*2040.560805 102*2037.033779 
102*2037.033779 102*2033.506752 
102*2033.506752 102*2029.979725 
102*2029.979725 102*2026.452699 
102*2026.452699 102*2022.925672 
102*2022.925672 102*2019.398646 
102*2019.398646 102*2015.871619 
102*2015.871619 102*2012.344593 
102*2012.344593 102*2008.817566 
102*2008.817566 102*2005.290540 
102*2005.290540 102*2001.763513 
102*2001.763513 102*1998.236487 
102*1998.236487 102*1994.709460 
102*1994.709460 102*1991.182434 
102*1991.182434 102*1987.655407 
102*1987.655407 102*1984.128381 
102*1984.128381 102*1980.601354 
102*1980.601354 102*1977.074328 
102*1977.074328 102*1973.547301 
102*1973.547301 102*1970.020275 
102*1970.020275 102*1966.493248 
102*1966.493248 102*1962.966221 
102*1962.966221 102*1959.439195 
102*1959.439195 102*1955.912168 
102*1955.912168 102*1952.385142 
102*1952.385142 102*1948.858115 
102*1948.858115 102*1945.331089 
102*1945.331089 102*1941.804062 
102*1941.804062 102*1938.277036 
102*1938.277036 102*1934.750009 
102*1934.750009 102*1931.222983 
102*1931.222983 102*1927.695956 
102*1927.695956 102*1924.168930 
102*1924.168930 102*1920.641903 
102*1920.641903 102*1917.114877 
102*1917.114877 102*1913.587850 
102*2095.966203 102*2092.439176 
102*2092.439176 102*2088.912150 
102*2088.912150 102*2085.385123 
102*2085.385123 102*2081.858097 
102*2081.858097 102*2078.331070 
102*2078.331070 102*2074.804044 
102*2074.804044 102*2071.277017 
102*2071.277017 102*2067.749991 
102*2067.749991 102*2064.222964 
102*2064.222964 102*2060.695938 
102*2060.695938 102*2057.168911 
102*2057.168911 102*2053.641885 
102*2053.641885 102*2050.114858 
102*2050.114858 102*2046.587832 
102*2046.587832 102*2043.060805 
102*2043.060805 102*2039.533779 
102*2039.533779 102*2036.006752 
102*2036.006752 102*2032.479725 
102*2032.479725 102*2028.952699 
102*2028.952699 102*2025.425672 
102*2025.425672 102*2021.898646 
102*2021.898646 102*2018.371619 
102*2018.371619 102*2014.844593 
102*2014.844593 102*2011.317566 
102*2011.317566 102*2007.790540 
102*2007.790540 102*2004.263513 
102*2004.263513 102*2000.736487 
102*2000.736487 102*1997.209460 
102*1997.209460 102*1993.682434 
102*1993.682434 102*1990.155407 
102*1990.155407 102*1986.628381 
102*1986.628381 102*1983.101354 
102*1983.101354 102*1979.574328 
102*1979.574328 102*1976.047301 
102*1976.047301 102*1972.520275 
102*1972.520275 102*1968.993248 
102*1968.993248 102*1965.466221 
102*1965.466221 102*1961.939195 
102*1961.939195 102*1958.412168 
102*1958.412168 102*1954.885142 
102*1954.885142 102*1951.358115 
102*1951.358115 102*1947.831089 
102*1947.831089 102*1944.304062 
102*1944.304062 102*1940.777036 
102*1940.777036 102*1937.250009 
102*1937.250009 102*1933.722983 
102*1933.722983 102*1930.195956 
102*1930.195956 102*1926.668930 
102*1926.668930 102*1923.141903 
102*1923.141903 102*1919.614877 
102*1919.614877 102*1916.087850 
102*2095.966203 102*2092.439176 
102*2092.439176 102*2088.912150 
102*2088.912150 102*2085.385123 
102*2085.385123 102*2081.858097 
102*2081.858097 102*2078.331070 
102*2078.331070 102*2074.804044 
102*2074.804044 102*2071.277017 
102*2071.277017 102*2067.749991 
102*2067.749991 102*2064.222964 
102*2064.222964 102*2060.695938 
102*2060.695938 102*2057.168911 
102*2057.168911 102*2053.641885 
102*2053.641885 102*2050.114858 
102*2050.114858 102*2046.587832 
102*2046.587832 102*2043.060805 
102*2043.060805 102*2039.533779 
102*2039.533779 102*2036.006752 
102*2036.006752 102*2032.479725 
102*2032.479725 102*2028.952699 
102*2028.952699 102*2025.425672 
102*2025.425672 102*2021.898646 
102*2021.898646 102*2018.371619 
102*2018.371619 102*2014.844593 
102*2014.844593 102*2011.317566 
102*2011.317566 102*2007.790540 
102*2007.790540 102*2004.263513 
102*2004.263513 102*2000.736487 
102*2000.736487 102*1997.209460 
102*1997.209460 102*1993.682434 
102*1993.682434 102*1990.155407 
102*1990.155407 102*1986.628381 
102*1986.628381 102*1983.101354 
102*1983.101354 102*1979.574328 
102*1979.574328 102*1976.047301 
102*1976.047301 102*1972.520275 
102*1972.520275 102*1968.993248 
102*1968.993248 102*1965.466221 
102*1965.466221 102*1961.939195 
102*1961.939195 102*1958.412168 
102*1958.412168 102*1954.885142 
102*1954.885142 102*1951.358115 
102*1951.358115 102*1947.831089 
102*1947.831089 102*1944.304062 
102*1944.304062 102*1940.777036 
102*1940.777036 102*1937.250009 
102*1937.250009 102*1933.722983 
102*1933.722983 102*1930.195956 
102*1930.195956 102*1926.668930 
102*1926.668930 102*1923.141903 
102*1923.141903 102*1919.614877 
102*1919.614877 102*1916.087850 
102*2098.466203 102*2094.939176 
102*2094.939176 102*2091.412150 
102*2091.412150 102*2087.885123 
102*2087.885123 102*2084.358097 
102*2084.358097 102*2080.831070 
102*2080.831070 102*2077.304044 
102*2077.304044 102*2073.777017 
102*2073.777017 102*2070.249991 
102*2070.249991 102*2066.722964 
102*2066.722964 102*2063.195938 
102*2063.195938 102*2059.668911 
102*2059.668911 102*2056.141885 
102*2056.141885 102*2052.614858 
102*2052.614858 102*2049.087832 
102*2049.087832 102*2045.560805 
102*2045.560805 102*2042.033779 
102*2042.033779 102*2038.506752 
102*2038.506752 102*2034.979725 
102*2034.979725 102*2031.452699 
102*2031.452699 102*2027.925672 
102*2027.925672 102*2024.398646 
102*2024.398646 102*2020.871619 
102*2020.871619 102*2017.344593 
102*2017.344593 102*2013.817566 
102*2013.817566 102*2010.290540 
102*2010.290540 102*2006.763513 
102*2006.763513 102*2003.236487 
102*2003.236487 102*1999.709460 
102*1999.709460 102*1996.182434 
102*1996.182434 102*1992.655407 
102*1992.655407 102*1989.128381 
102*1989.128381 102*1985.601354 
102*1985.601354 102*1982.074328 
102*1982.074328 102*1978.547301 
102*1978.547301 102*1975.020275 
102*1975.020275 102*1971.493248 
102*1971.493248 102*1967.966221 
102*1967.966221 102*1964.439195 
102*1964.439195 102*1960.912168 
102*1960.912168 102*1957.385142 
102*1957.385142 102*1953.858115 
102*1953.858115 102*1950.331089 
102*1950.331089 102*1946.804062 
102*1946.804062 102*1943.277036 
102*1943.277036 102*1939.750009 
102*1939.750009 102*1936.222983 
102*1936.222983 102*1932.695956 
102*1932.695956 102*1929.168930 
102*1929.168930 102*1925.641903 
102*1925.641903 102*1922.114877 
102*1922.114877 102*1918.587850 
102*2098.466203 102*2094.939176 
102*2094.939176 102*2091.412150 
102*2091.412150 102*2087.885123 
102*2087.885123 102*2084.358097 
102*2084.358097 102*2080.831070 
102*2080.831070 102*2077.304044 
102*2077.304044 102*2073.777017 
102*2073.777017 102*2070.249991 
102*2070.249991 102*2066.722964 
102*2066.722964 102*2063.195938 
102*2063.195938 102*2059.668911 
102*2059.668911 102*2056.141885 
102*2056.141885 102*2052.614858 
102*2052.614858 102*2049.087832 
102*2049.087832 102*2045.560805 
102*2045.560805 102*2042.033779 
102*2042.033779 102*2038.506752 
102*2038.506752 102*2034.979725 
102*2034.979725 102*2031.452699 
102*2031.452699 102*2027.925672 
102*2027.925672 102*2024.398646 
102*2024.398646 102*2020.871619 
102*2020.871619 102*2017.344593 
102*2017.344593 102*2013.817566 
102*2013.817566 102*2010.290540 
102*2010.290540 102*2006.763513 
102*2006.763513 102*2003.236487 
102*2003.236487 102*1999.709460 
102*1999.709460 102*1996.182434 
102*1996.182434 102*1992.655407 
102*1992.655407 102*1989.128381 
102*1989.128381 102*1985.601354 
102*1985.601354 102*1982.074328 
102*1982.074328 102*1978.547301 
102*1978.547301 102*1975.020275 
102*1975.020275 102*1971.493248 
102*1971.493248 102*1967.966221 
102*1967.966221 102*1964.439195 
102*1964.439195 102*1960.912168 
102*1960.912168 102*1957.385142 
102*1957.385142 102*1953.858115 
102*1953.858115 102*1950.331089 
102*1950.331089 102*1946.804062 
102*1946.804062 102*1943.277036 
102*1943.277036 102*1939.750009 
102*1939.750009 102*1936.222983 
102*1936.222983 102*1932.695956 
102*1932.695956 102*1929.168930 
102*1929.168930 102*1925.641903 
102*1925.641903 102*1922.114877 
102*1922.114877 102*1918.587850 
102*2100.966203 102*2097.439176 
102*2097.439176 102*2093.912150 
102*2093.912150 102*2090.385123 
102*2090.385123 102*2086.858097 
102*2086.858097 102*2083.331070 
102*2083.331070 102*2079.804044 
102*2079.804044 102*2076.277017 
102*2076.277017 102*2072.749991 
102*2072.749991 102*2069.222964 
102*2069.222964 102*2065.695938 
102*2065.695938 102*2062.168911 
102*2062.168911 102*2058.641885 
102*2058.641885 102*2055.114858 
102*2055.114858 102*2051.587832 
102*2051.587832 102*2048.060805 
102*2048.060805 102*2044.533779 
102*2044.533779 102*2041.006752 
102*2041.006752 102*2037.479725 
102*2037.479725 102*2033.952699 
102*2033.952699 102*2030.425672 
102*2030.425672 102*2026.898646 
102*2026.898646 102*2023.371619 
102*2023.371619 102*2019.844593 
102*2019.844593 102*2016.317566 
102*2016.317566 102*2012.790540 
102*2012.790540 102*2009.263513 
102*2009.263513 102*2005.736487 
102*2005.736487 102*2002.209460 
102*2002.209460 102*1998.682434 
102*1998.682434 102*1995.155407 
102*1995.155407 102*1991.628381 
102*1991.628381 102*1988.101354 
102*1988.101354 102*1984.574328 
102*1984.574328 102*1981.047301 
102*1981.047301 102*1977.520275 
102*1977.520275 102*1973.993248 
102*1973.993248 102*1970.466221 
102*1970.466221 102*1966.939195 
102*1966.939195 102*1963.412168 
102*1963.412168 102*1959.885142 
102*1959.885142 102*1956.358115 
102*1956.358115 102*1952.831089 
102*1952.831089 102*1949.304062 
102*1949.304062 102*1945.777036 
102*1945.777036 102*1942.250009 
102*1942.250009 102*1938.722983 
102*1938.722983 102*1935.195956 
102*1935.195956 102*1931.668930 
102*1931.668930 102*1928.141903 
102*1928.141903 102*1924.614877 
102*1924.614877 102*1921.087850 
102*2100.966203 102*2097.439176 
102*2097.439176 102*2093.912150 
102*2093.912150 102*2090.385123 
102*2090.385123 102*2086.858097 
102*2086.858097 102*2083.331070 
102*2083.331070 102*2079.804044 
102*2079.804044 102*2076.277017 
102*2076.277017 102*2072.749991 
102*2072.749991 102*2069.222964 
102*2069.222964 102*2065.695938 
102*2065.695938 102*2062.168911 
102*2062.168911 102*2058.641885 
102*2058.641885 102*2055.114858 
102*2055.114858 102*2051.587832 
102*2051.587832 102*2048.060805 
102*2048.060805 102*2044.533779 
102*2044.533779 102*2041.006752 
102*2041.006752 102*2037.479725 
102*2037.479725 102*2033.952699 
102*2033.952699 102*2030.425672 
102*2030.425672 102*2026.898646 
102*2026.898646 102*2023.371619 
102*2023.371619 102*2019.844593 
102*2019.844593 102*2016.317566 
102*2016.317566 102*2012.790540 
102*2012.790540 102*2009.263513 
102*2009.263513 102*2005.736487 
102*2005.736487 102*2002.209460 
102*2002.209460 102*1998.682434 
102*1998.682434 102*1995.155407 
102*1995.155407 102*1991.628381 
102*1991.628381 102*1988.101354 
102*1988.101354 102*1984.574328 
102*1984.574328 102*1981.047301 
102*1981.047301 102*1977.520275 
102*1977.520275 102*1973.993248 
102*1973.993248 102*1970.466221 
102*1970.466221 102*1966.939195 
102*1966.939195 102*1963.412168 
102*1963.412168 102*1959.885142 
102*1959.885142 102*1956.358115 
102*1956.358115 102*1952.831089 
102*1952.831089 102*1949.304062 
102*1949.304062 102*1945.777036 
102*1945.777036 102*1942.250009 
102*1942.250009 102*1938.722983 
102*1938.722983 102*1935.195956 
102*1935.195956 102*1931.668930 
102*1931.668930 102*1928.141903 
102*1928.141903 102*1924.614877 
102*1924.614877 102*1921.087850 
102*2103.466203 102*2099.939176 
102*2099.939176 102*2096.412150 
102*2096.412150 102*2092.885123 
102*2092.885123 102*2089.358097 
102*2089.358097 102*2085.831070 
102*2085.831070 102*2082.304044 
102*2082.304044 102*2078.777017 
102*2078.777017 102*2075.249991 
102*2075.249991 102*2071.722964 
102*2071.722964 102*2068.195938 
102*2068.195938 102*2064.668911 
102*2064.668911 102*2061.141885 
102*2061.141885 102*2057.614858 
102*2057.614858 102*2054.087832 
102*2054.087832 102*2050.560805 
102*2050.560805 102*2047.033779 
102*2047.033779 102*2043.506752 
102*2043.506752 102*2039.979725 
102*2039.979725 102*2036.452699 
102*2036.452699 102*2032.925672 
102*2032.925672 102*2029.398646 
102*2029.398646 102*2025.871619 
102*2025.871619 102*2022.344593 
102*2022.344593 102*2018.817566 
102*2018.817566 102*2015.290540 
102*2015.290540 102*2011.763513 
102*2011.763513 102*2008.236487 
102*2008.236487 102*2004.709460 
102*2004.709460 102*2001.182434 
102*2001.182434 102*1997.655407 
102*1997.655407 102*1994.128381 
102*1994.128381 102*1990.601354 
102*1990.601354 102*1987.074328 
102*1987.074328 102*1983.547301 
102*1983.547301 102*1980.020275 
102*1980.020275 102*1976.493248 
102*1976.493248 102*1972.966221 
102*1972.966221 102*1969.439195 
102*1969.439195 102*1965.912168 
102*1965.912168 102*1962.385142 
102*1962.385142 102*1958.858115 
102*1958.858115 102*1955.331089 
102*1955.331089 102*1951.804062 
102*1951.804062 102*1948.277036 
102*1948.277036 102*1944.750009 
102*1944.750009 102*1941.222983 
102*1941.222983 102*1937.695956 
102*1937.695956 102*1934.168930 
102*1934.168930 102*1930.641903 
102*1930.641903 102*1927.114877 
102*1927.114877 102*1923.587850 
102*2103.466203 102*2099.939176 
102*2099.939176 102*2096.412150 
102*2096.412150 102*2092.885123 
102*2092.885123 102*2089.358097 
102*2089.358097 102*2085.831070 
102*2085.831070 102*2082.304044 
102*2082.304044 102*2078.777017 
102*2078.777017 102*2075.249991 
102*2075.249991 102*2071.722964 
102*2071.722964 102*2068.195938 
102*2068.195938 102*2064.668911 
102*2064.668911 102*2061.141885 
102*2061.141885 102*2057.614858 
102*2057.614858 102*2054.087832 
102*2054.087832 102*2050.560805 
102*2050.560805 102*2047.033779 
102*2047.033779 102*2043.506752 
102*2043.506752 102*2039.979725 
102*2039.979725 102*2036.452699 
102*2036.452699 102*2032.925672 
102*2032.925672 102*2029.398646 
102*2029.398646 102*2025.871619 
102*2025.871619 102*2022.344593 
102*2022.344593 102*2018.817566 
102*2018.817566 102*2015.290540 
102*2015.290540 102*2011.763513 
102*2011.763513 102*2008.236487 
102*2008.236487 102*2004.709460 
102*2004.709460 102*2001.182434 
102*2001.182434 102*1997.655407 
102*1997.655407 102*1994.128381 
102*1994.128381 102*1990.601354 
102*1990.601354 102*1987.074328 
102*1987.074328 102*1983.547301 
102*1983.547301 102*1980.020275 
102*1980.020275 102*1976.493248 
102*1976.493248 102*1972.966221 
102*1972.966221 102*1969.439195 
102*1969.439195 102*1965.912168 
102*1965.912168 102*1962.385142 
102*1962.385142 102*1958.858115 
102*1958.858115 102*1955.331089 
102*1955.331089 102*1951.804062 
102*1951.804062 102*1948.277036 
102*1948.277036 102*1944.750009 
102*1944.750009 102*1941.222983 
102*1941.222983 102*1937.695956 
102*1937.695956 102*1934.168930 
102*1934.168930 102*1930.641903 
102*1930.641903 102*1927.114877 
102*1927.114877 102*1923.587850 
102*2105.966203 102*2102.439176 
102*2102.439176 102*2098.912150 
102*2098.912150 102*2095.385123 
102*2095.385123 102*2091.858097 
102*2091.858097 102*2088.331070 
102*2088.331070 102*2084.804044 
102*2084.804044 102*2081.277017 
102*2081.277017 102*2077.749991 
102*2077.749991 102*2074.222964 
102*2074.222964 102*2070.695938 
102*2070.695938 102*2067.168911 
102*2067.168911 102*2063.641885 
102*2063.641885 102*2060.114858 
102*2060.114858 102*2056.587832 
102*2056.587832 102*2053.060805 
102*2053.060805 102*2049.533779 
102*2049.533779 102*2046.006752 
102*2046.006752 102*2042.479725 
102*2042.479725 102*2038.952699 
102*2038.952699 102*2035.425672 
102*2035.425672 102*2031.898646 
102*2031.898646 102*2028.371619 
102*2028.371619 102*2024.844593 
102*2024.844593 102*2021.317566 
102*2021.317566 102*2017.790540 
102*2017.790540 102*2014.263513 
102*2014.263513 102*2010.736487 
102*2010.736487 102*2007.209460 
102*2007.209460 102*2003.682434 
102*2003.682434 102*2000.155407 
102*2000.155407 102*1996.628381 
102*1996.628381 102*1993.101354 
102*1993.101354 102*1989.574328 
102*1989.574328 102*1986.047301 
102*1986.047301 102*1982.520275 
102*1982.520275 102*1978.993248 
102*1978.993248 102*1975.466221 
102*1975.466221 102*1971.939195 
102*1971.939195 102*1968.412168 
102*1968.412168 102*1964.885142 
102*1964.885142 102*1961.358115 
102*1961.358115 102*1957.831089 
102*1957.831089 102*1954.304062 
102*1954.304062 102*1950.777036 
102*1950.777036 102*1947.250009 
102*1947.250009 102*1943.722983 
102*1943.722983 102*1940.195956 
102*1940.195956 102*1936.668930 
102*1936.668930 102*1933.141903 
102*1933.141903 102*1929.614877 
102*1929.614877 102*1926.087850 
102*2105.966203 102*2102.439176 
102*2102.439176 102*2098.912150 
102*2098.912150 102*2095.385123 
102*2095.385123 102*2091.858097 
102*2091.858097 102*2088.331070 
102*2088.331070 102*2084.804044 
102*2084.804044 102*2081.277017 
102*2081.277017 102*2077.749991 
102*2077.749991 102*2074.222964 
102*2074.222964 102*2070.695938 
102*2070.695938 102*2067.168911 
102*2067.168911 102*2063.641885 
102*2063.641885 102*2060.114858 
102*2060.114858 102*2056.587832 
102*2056.587832 102*2053.060805 
102*2053.060805 102*2049.533779 
102*2049.533779 102*2046.006752 
102*2046.006752 102*2042.479725 
102*2042.479725 102*2038.952699 
102*2038.952699 102*2035.425672 
102*2035.425672 102*2031.898646 
102*2031.898646 102*2028.371619 
102*2028.371619 102*2024.844593 
102*2024.844593 102*2021.317566 
102*2021.317566 102*2017.790540 
102*2017.790540 102*2014.263513 
102*2014.263513 102*2010.736487 
102*2010.736487 102*2007.209460 
102*2007.209460 102*2003.682434 
102*2003.682434 102*2000.155407 
102*2000.155407 102*1996.628381 
102*1996.628381 102*1993.101354 
102*1993.101354 102*1989.574328 
102*1989.574328 102*1986.047301 
102*1986.047301 102*1982.520275 
102*1982.520275 102*1978.993248 
102*1978.993248 102*1975.466221 
102*1975.466221 102*1971.939195 
102*1971.939195 102*1968.412168 
102*1968.412168 102*1964.885142 
102*1964.885142 102*1961.358115 
102*1961.358115 102*1957.831089 
102*1957.831089 102*1954.304062 
102*1954.304062 102*1950.777036 
102*1950.777036 102*1947.250009 
102*1947.250009 102*1943.722983 
102*1943.722983 102*1940.195956 
102*1940.195956 102*1936.668930 
102*1936.668930 102*1933.141903 
102*1933.141903 102*1929.614877 
102*1929.614877 102*1926.087850 
102*2108.466203 102*2104.939176 
102*2104.939176 102*2101.412150 
102*2101.412150 102*2097.885123 
102*2097.885123 102*2094.358097 
102*2094.358097 102*2090.831070 
102*2090.831070 102*2087.304044 
102*2087.304044 102*2083.777017 
102*2083.777017 102*2080.249991 
102*2080.249991 102*2076.722964 
102*2076.722964 102*2073.195938 
102*2073.195938 102*2069.668911 
102*2069.668911 102*2066.141885 
102*2066.141885 102*2062.614858 
102*2062.614858 102*2059.087832 
102*2059.087832 102*2055.560805 
102*2055.560805 102*2052.033779 
102*2052.033779 102*2048.506752 
102*2048.506752 102*2044.979725 
102*2044.979725 102*2041.452699 
102*2041.452699 102*2037.925672 
102*2037.925672 102*2034.398646 
102*2034.398646 102*2030.871619 
102*2030.871619 102*2027.344593 
102*2027.344593 102*2023.817566 
102*2023.817566 102*2020.290540 
102*2020.290540 102*2016.763513 
102*2016.763513 102*2013.236487 
102*2013.236487 102*2009.709460 
102*2009.709460 102*2006.182434 
102*2006.182434 102*2002.655407 
102*2002.655407 102*1999.128381 
102*1999.128381 102*1995.601354 
102*1995.601354 102*1992.074328 
102*1992.074328 102*1988.547301 
102*1988.547301 102*1985.020275 
102*1985.020275 102*1981.493248 
102*1981.493248 102*1977.966221 
102*1977.966221 102*1974.439195 
102*1974.439195 102*1970.912168 
102*1970.912168 102*1967.385142 
102*1967.385142 102*1963.858115 
102*1963.858115 102*1960.331089 
102*1960.331089 102*1956.804062 
102*1956.804062 102*1953.277036 
102*1953.277036 102*1949.750009 
102*1949.750009 102*1946.222983 
102*1946.222983 102*1942.695956 
102*1942.695956 102*1939.168930 
102*1939.168930 102*1935.641903 
102*1935.641903 102*1932.114877 
102*1932.114877 102*1928.587850 
102*2108.466203 102*2104.939176 
102*2104.939176 102*2101.412150 
102*2101.412150 102*2097.885123 
102*2097.885123 102*2094.358097 
102*2094.358097 102*2090.831070 
102*2090.831070 102*2087.304044 
102*2087.304044 102*2083.777017 
102*2083.777017 102*2080.249991 
102*2080.249991 102*2076.722964 
102*2076.722964 102*2073.195938 
102*2073.195938 102*2069.668911 
102*2069.668911 102*2066.141885 
102*2066.141885 102*2062.614858 
102*2062.614858 102*2059.087832 
102*2059.087832 102*2055.560805 
102*2055.560805 102*2052.033779 
102*2052.033779 102*2048.506752 
102*2048.506752 102*2044.979725 
102*2044.979725 102*2041.452699 
102*2041.452699 102*2037.925672 
102*2037.925672 102*2034.398646 
102*2034.398646 102*2030.871619 
102*2030.871619 102*2027.344593 
102*2027.344593 102*2023.817566 
102*2023.817566 102*2020.290540 
102*2020.290540 102*2016.763513 
102*2016.763513 102*2013.236487 
102*2013.236487 102*2009.709460 
102*2009.709460 102*2006.182434 
102*2006.182434 102*2002.655407 
102*2002.655407 102*1999.128381 
102*1999.128381 102*1995.601354 
102*1995.601354 102*1992.074328 
102*1992.074328 102*1988.547301 
102*1988.547301 102*1985.020275 
102*1985.020275 102*1981.493248 
102*1981.493248 102*1977.966221 
102*1977.966221 102*1974.439195 
102*1974.439195 102*1970.912168 
102*1970.912168 102*1967.385142 
102*1967.385142 102*1963.858115 
102*1963.858115 102*1960.331089 
102*1960.331089 102*1956.804062 
102*1956.804062 102*1953.277036 
102*1953.277036 102*1949.750009 
102*1949.750009 102*1946.222983 
102*1946.222983 102*1942.695956 
102*1942.695956 102*1939.168930 
102*1939.168930 102*1935.641903 
102*1935.641903 102*1932.114877 
102*1932.114877 102*1928.587850 
102*2110.966203 102*2107.439176 
102*2107.439176 102*2103.912150 
102*2103.912150 102*2100.385123 
102*2100.385123 102*2096.858097 
102*2096.858097 102*2093.331070 
102*2093.331070 102*2089.804044 
102*2089.804044 102*2086.277017 
102*2086.277017 102*2082.749991 
102*2082.749991 102*2079.222964 
102*2079.222964 102*2075.695938 
102*2075.695938 102*2072.168911 
102*2072.168911 102*2068.641885 
102*2068.641885 102*2065.114858 
102*2065.114858 102*2061.587832 
102*2061.587832 102*2058.060805 
102*2058.060805 102*2054.533779 
102*2054.533779 102*2051.006752 
102*2051.006752 102*2047.479725 
102*2047.479725 102*2043.952699 
102*2043.952699 102*2040.425672 
102*2040.425672 102*2036.898646 
102*2036.898646 102*2033.371619 
102*2033.371619 102*2029.844593 
102*2029.844593 102*2026.317566 
102*2026.317566 102*2022.790540 
102*2022.790540 102*2019.263513 
102*2019.263513 102*2015.736487 
102*2015.736487 102*2012.209460 
102*2012.209460 102*2008.682434 
102*2008.682434 102*2005.155407 
102*2005.155407 102*2001.628381 
102*2001.628381 102*1998.101354 
102*1998.101354 102*1994.574328 
102*1994.574328 102*1991.047301 
102*1991.047301 102*1987.520275 
102*1987.520275 102*1983.993248 
102*1983.993248 102*1980.466221 
102*1980.466221 102*1976.939195 
102*1976.939195 102*1973.412168 
102*1973.412168 102*1969.885142 
102*1969.885142 102*1966.358115 
102*1966.358115 102*1962.831089 
102*1962.831089 102*1959.304062 
102*1959.304062 102*1955.777036 
102*1955.777036 102*1952.250009 
102*1952.250009 102*1948.722983 
102*1948.722983 102*1945.195956 
102*1945.195956 102*1941.668930 
102*1941.668930 102*1938.141903 
102*1938.141903 102*1934.614877 
102*1934.614877 102*1931.087850 
102*2110.966203 102*2107.439176 
102*2107.439176 102*2103.912150 
102*2103.912150 102*2100.385123 
102*2100.385123 102*2096.858097 
102*2096.858097 102*2093.331070 
102*2093.331070 102*2089.804044 
102*2089.804044 102*2086.277017 
102*2086.277017 102*2082.749991 
102*2082.749991 102*2079.222964 
102*2079.222964 102*2075.695938 
102*2075.695938 102*2072.168911 
102*2072.168911 102*2068.641885 
102*2068.641885 102*2065.114858 
102*2065.114858 102*2061.587832 
102*2061.587832 102*2058.060805 
102*2058.060805 102*2054.533779 
102*2054.533779 102*2051.006752 
102*2051.006752 102*2047.479725 
102*2047.479725 102*2043.952699 
102*2043.952699 102*2040.425672 
102*2040.425672 102*2036.898646 
102*2036.898646 102*2033.371619 
102*2033.371619 102*2029.844593 
102*2029.844593 102*2026.317566 
102*2026.317566 102*2022.790540 
102*2022.790540 102*2019.263513 
102*2019.263513 102*2015.736487 
102*2015.736487 102*2012.209460 
102*2012.209460 102*2008.682434 
102*2008.682434 102*2005.155407 
102*2005.155407 102*2001.628381 
102*2001.628381 102*1998.101354 
102*1998.101354 102*1994.574328 
102*1994.574328 102*1991.047301 
102*1991.047301 102*1987.520275 
102*1987.520275 102*1983.993248 
102*1983.993248 102*1980.466221 
102*1980.466221 102*1976.939195 
102*1976.939195 102*1973.412168 
102*1973.412168 102*1969.885142 
102*1969.885142 102*1966.358115 
102*1966.358115 102*1962.831089 
102*1962.831089 102*1959.304062 
102*1959.304062 102*1955.777036 
102*1955.777036 102*1952.250009 
102*1952.250009 102*1948.722983 
102*1948.722983 102*1945.195956 
102*1945.195956 102*1941.668930 
102*1941.668930 102*1938.141903 
102*1938.141903 102*1934.614877 
102*1934.614877 102*1931.087850 
102*2113.466203 102*2109.939176 
102*2109.939176 102*2106.412150 
102*2106.412150 102*2102.885123 
102*2102.885123 102*2099.358097 
102*2099.358097 102*2095.831070 
102*2095.831070 102*2092.304044 
102*2092.304044 102*2088.777017 
102*2088.777017 102*2085.249991 
102*2085.249991 102*2081.722964 
102*2081.722964 102*2078.195938 
102*2078.195938 102*2074.668911 
102*2074.668911 102*2071.141885 
102*2071.141885 102*2067.614858 
102*2067.614858 102*2064.087832 
102*2064.087832 102*2060.560805 
102*2060.560805 102*2057.033779 
102*2057.033779 102*2053.506752 
102*2053.506752 102*2049.979725 
102*2049.979725 102*2046.452699 
102*2046.452699 102*2042.925672 
102*2042.925672 102*2039.398646 
102*2039.398646 102*2035.871619 
102*2035.871619 102*2032.344593 
102*2032.344593 102*2028.817566 
102*2028.817566 102*2025.290540 
102*2025.290540 102*2021.763513 
102*2021.763513 102*2018.236487 
102*2018.236487 102*2014.709460 
102*2014.709460 102*2011.182434 
102*2011.182434 102*2007.655407 
102*2007.655407 102*2004.128381 
102*2004.128381 102*2000.601354 
102*2000.601354 102*1997.074328 
102*1997.074328 102*1993.547301 
102*1993.547301 102*1990.020275 
102*1990.020275 102*1986.493248 
102*1986.493248 102*1982.966221 
102*1982.966221 102*1979.439195 
102*1979.439195 102*1975.912168 
102*1975.912168 102*1972.385142 
102*1972.385142 102*1968.858115 
102*1968.858115 102*1965.331089 
102*1965.331089 102*1961.804062 
102*1961.804062 102*1958.277036 
102*1958.277036 102*1954.750009 
102*1954.750009 102*1951.222983 
102*1951.222983 102*1947.695956 
102*1947.695956 102*1944.168930 
102*1944.168930 102*1940.641903 
102*1940.641903 102*1937.114877 
102*1937.114877 102*1933.587850 
102*2113.466203 102*2109.939176 
102*2109.939176 102*2106.412150 
102*2106.412150 102*2102.885123 
102*2102.885123 102*2099.358097 
102*2099.358097 102*2095.831070 
102*2095.831070 102*2092.304044 
102*2092.304044 102*2088.777017 
102*2088.777017 102*2085.249991 
102*2085.249991 102*2081.722964 
102*2081.722964 102*2078.195938 
102*2078.195938 102*2074.668911 
102*2074.668911 102*2071.141885 
102*2071.141885 102*2067.614858 
102*2067.614858 102*2064.087832 
102*2064.087832 102*2060.560805 
102*2060.560805 102*2057.033779 
102*2057.033779 102*2053.506752 
102*2053.506752 102*2049.979725 
102*2049.979725 102*2046.452699 
102*2046.452699 102*2042.925672 
102*2042.925672 102*2039.398646 
102*2039.398646 102*2035.871619 
102*2035.871619 102*2032.344593 
102*2032.344593 102*2028.817566 
102*2028.817566 102*2025.290540 
102*2025.290540 102*2021.763513 
102*2021.763513 102*2018.236487 
102*2018.236487 102*2014.709460 
102*2014.709460 102*2011.182434 
102*2011.182434 102*2007.655407 
102*2007.655407 102*2004.128381 
102*2004.128381 102*2000.601354 
102*2000.601354 102*1997.074328 
102*1997.074328 102*1993.547301 
102*1993.547301 102*1990.020275 
102*1990.020275 102*1986.493248 
102*1986.493248 102*1982.966221 
102*1982.966221 102*1979.439195 
102*1979.439195 102*1975.912168 
102*1975.912168 102*1972.385142 
102*1972.385142 102*1968.858115 
102*1968.858115 102*1965.331089 
102*1965.331089 102*1961.804062 
102*1961.804062 102*1958.277036 
102*1958.277036 102*1954.750009 
102*1954.750009 102*1951.222983 
102*1951.222983 102*1947.695956 
102*1947.695956 102*1944.168930 
102*1944.168930 102*1940.641903 
102*1940.641903 102*1937.114877 
102*1937.114877 102*1933.587850 
102*2115.966203 102*2112.439176 
102*2112.439176 102*2108.912150 
102*2108.912150 102*2105.385123 
102*2105.385123 102*2101.858097 
102*2101.858097 102*2098.331070 
102*2098.331070 102*2094.804044 
102*2094.804044 102*2091.277017 
102*2091.277017 102*2087.749991 
102*2087.749991 102*2084.222964 
102*2084.222964 102*2080.695938 
102*2080.695938 102*2077.168911 
102*2077.168911 102*2073.641885 
102*2073.641885 102*2070.114858 
102*2070.114858 102*2066.587832 
102*2066.587832 102*2063.060805 
102*2063.060805 102*2059.533779 
102*2059.533779 102*2056.006752 
102*2056.006752 102*2052.479725 
102*2052.479725 102*2048.952699 
102*2048.952699 102*2045.425672 
102*2045.425672 102*2041.898646 
102*2041.898646 102*2038.371619 
102*2038.371619 102*2034.844593 
102*2034.844593 102*2031.317566 
102*2031.317566 102*2027.790540 
102*2027.790540 102*2024.263513 
102*2024.263513 102*2020.736487 
102*2020.736487 102*2017.209460 
102*2017.209460 102*2013.682434 
102*2013.682434 102*2010.155407 
102*2010.155407 102*2006.628381 
102*2006.628381 102*2003.101354 
102*2003.101354 102*1999.574328 
102*1999.574328 102*1996.047301 
102*1996.047301 102*1992.520275 
102*1992.520275 102*1988.993248 
102*1988.993248 102*1985.466221 
102*1985.466221 102*1981.939195 
102*1981.939195 102*1978.412168 
102*1978.412168 102*1974.885142 
102*1974.885142 102*1971.358115 