ZCORN
102*2023.126200 102*2022.253513 
102*2022.253513 102*2021.380826 
102*2021.380826 102*2020.508139 
102*2020.508139 102*2019.635453 
102*2019.635453 102*2018.762766 
102*2018.762766 102*2017.890079 
102*2017.890079 102*2017.017392 
102*2017.017392 102*2016.144705 
102*2016.144705 102*2015.272019 
102*2015.272019 102*2014.399332 
102*2014.399332 102*2013.526645 
102*2013.526645 102*2012.653958 
102*2012.653958 102*2011.781272 
102*2011.781272 102*2010.908585 
102*2010.908585 102*2010.035898 
102*2010.035898 102*2009.163211 
102*2009.163211 102*2008.290524 
102*2008.290524 102*2007.417838 
102*2007.417838 102*2006.545151 
102*2006.545151 102*2005.672464 
102*2005.672464 102*2004.799777 
102*2004.799777 102*2003.927091 
102*2003.927091 102*2003.054404 
102*2003.054404 102*2002.181717 
102*2002.181717 102*2001.309030 
102*2001.309030 102*2000.436343 
102*2000.436343 102*1999.563657 
102*1999.563657 102*1998.690970 
102*1998.690970 102*1997.818283 
102*1997.818283 102*1996.945596 
102*1996.945596 102*1996.072909 
102*1996.072909 102*1995.200223 
102*1995.200223 102*1994.327536 
102*1994.327536 102*1993.454849 
102*1993.454849 102*1992.582162 
102*1992.582162 102*1991.709476 
102*1991.709476 102*1990.836789 
102*1990.836789 102*1989.964102 
102*1989.964102 102*1989.091415 
102*1989.091415 102*1988.218728 
102*1988.218728 102*1987.346042 
102*1987.346042 102*1986.473355 
102*1986.473355 102*1985.600668 
102*1985.600668 102*1984.727981 
102*1984.727981 102*1983.855295 
102*1983.855295 102*1982.982608 
102*1982.982608 102*1982.109921 
102*1982.109921 102*1981.237234 
102*1981.237234 102*1980.364547 
102*1980.364547 102*1979.491861 
102*1979.491861 102*1978.619174 
102*2025.626200 102*2024.753513 
102*2024.753513 102*2023.880826 
102*2023.880826 102*2023.008139 
102*2023.008139 102*2022.135453 
102*2022.135453 102*2021.262766 
102*2021.262766 102*2020.390079 
102*2020.390079 102*2019.517392 
102*2019.517392 102*2018.644705 
102*2018.644705 102*2017.772019 
102*2017.772019 102*2016.899332 
102*2016.899332 102*2016.026645 
102*2016.026645 102*2015.153958 
102*2015.153958 102*2014.281272 
102*2014.281272 102*2013.408585 
102*2013.408585 102*2012.535898 
102*2012.535898 102*2011.663211 
102*2011.663211 102*2010.790524 
102*2010.790524 102*2009.917838 
102*2009.917838 102*2009.045151 
102*2009.045151 102*2008.172464 
102*2008.172464 102*2007.299777 
102*2007.299777 102*2006.427091 
102*2006.427091 102*2005.554404 
102*2005.554404 102*2004.681717 
102*2004.681717 102*2003.809030 
102*2003.809030 102*2002.936343 
102*2002.936343 102*2002.063657 
102*2002.063657 102*2001.190970 
102*2001.190970 102*2000.318283 
102*2000.318283 102*1999.445596 
102*1999.445596 102*1998.572909 
102*1998.572909 102*1997.700223 
102*1997.700223 102*1996.827536 
102*1996.827536 102*1995.954849 
102*1995.954849 102*1995.082162 
102*1995.082162 102*1994.209476 
102*1994.209476 102*1993.336789 
102*1993.336789 102*1992.464102 
102*1992.464102 102*1991.591415 
102*1991.591415 102*1990.718728 
102*1990.718728 102*1989.846042 
102*1989.846042 102*1988.973355 
102*1988.973355 102*1988.100668 
102*1988.100668 102*1987.227981 
102*1987.227981 102*1986.355295 
102*1986.355295 102*1985.482608 
102*1985.482608 102*1984.609921 
102*1984.609921 102*1983.737234 
102*1983.737234 102*1982.864547 
102*1982.864547 102*1981.991861 
102*1981.991861 102*1981.119174 
102*2025.626200 102*2024.753513 
102*2024.753513 102*2023.880826 
102*2023.880826 102*2023.008139 
102*2023.008139 102*2022.135453 
102*2022.135453 102*2021.262766 
102*2021.262766 102*2020.390079 
102*2020.390079 102*2019.517392 
102*2019.517392 102*2018.644705 
102*2018.644705 102*2017.772019 
102*2017.772019 102*2016.899332 
102*2016.899332 102*2016.026645 
102*2016.026645 102*2015.153958 
102*2015.153958 102*2014.281272 
102*2014.281272 102*2013.408585 
102*2013.408585 102*2012.535898 
102*2012.535898 102*2011.663211 
102*2011.663211 102*2010.790524 
102*2010.790524 102*2009.917838 
102*2009.917838 102*2009.045151 
102*2009.045151 102*2008.172464 
102*2008.172464 102*2007.299777 
102*2007.299777 102*2006.427091 
102*2006.427091 102*2005.554404 
102*2005.554404 102*2004.681717 
102*2004.681717 102*2003.809030 
102*2003.809030 102*2002.936343 
102*2002.936343 102*2002.063657 
102*2002.063657 102*2001.190970 
102*2001.190970 102*2000.318283 
102*2000.318283 102*1999.445596 
102*1999.445596 102*1998.572909 
102*1998.572909 102*1997.700223 
102*1997.700223 102*1996.827536 
102*1996.827536 102*1995.954849 
102*1995.954849 102*1995.082162 
102*1995.082162 102*1994.209476 
102*1994.209476 102*1993.336789 
102*1993.336789 102*1992.464102 
102*1992.464102 102*1991.591415 
102*1991.591415 102*1990.718728 
102*1990.718728 102*1989.846042 
102*1989.846042 102*1988.973355 
102*1988.973355 102*1988.100668 
102*1988.100668 102*1987.227981 
102*1987.227981 102*1986.355295 
102*1986.355295 102*1985.482608 
102*1985.482608 102*1984.609921 
102*1984.609921 102*1983.737234 
102*1983.737234 102*1982.864547 
102*1982.864547 102*1981.991861 
102*1981.991861 102*1981.119174 
102*2028.126200 102*2027.253513 
102*2027.253513 102*2026.380826 
102*2026.380826 102*2025.508139 
102*2025.508139 102*2024.635453 
102*2024.635453 102*2023.762766 
102*2023.762766 102*2022.890079 
102*2022.890079 102*2022.017392 
102*2022.017392 102*2021.144705 
102*2021.144705 102*2020.272019 
102*2020.272019 102*2019.399332 
102*2019.399332 102*2018.526645 
102*2018.526645 102*2017.653958 
102*2017.653958 102*2016.781272 
102*2016.781272 102*2015.908585 
102*2015.908585 102*2015.035898 
102*2015.035898 102*2014.163211 
102*2014.163211 102*2013.290524 
102*2013.290524 102*2012.417838 
102*2012.417838 102*2011.545151 
102*2011.545151 102*2010.672464 
102*2010.672464 102*2009.799777 
102*2009.799777 102*2008.927091 
102*2008.927091 102*2008.054404 
102*2008.054404 102*2007.181717 
102*2007.181717 102*2006.309030 
102*2006.309030 102*2005.436343 
102*2005.436343 102*2004.563657 
102*2004.563657 102*2003.690970 
102*2003.690970 102*2002.818283 
102*2002.818283 102*2001.945596 
102*2001.945596 102*2001.072909 
102*2001.072909 102*2000.200223 
102*2000.200223 102*1999.327536 
102*1999.327536 102*1998.454849 
102*1998.454849 102*1997.582162 
102*1997.582162 102*1996.709476 
102*1996.709476 102*1995.836789 
102*1995.836789 102*1994.964102 
102*1994.964102 102*1994.091415 
102*1994.091415 102*1993.218728 
102*1993.218728 102*1992.346042 
102*1992.346042 102*1991.473355 
102*1991.473355 102*1990.600668 
102*1990.600668 102*1989.727981 
102*1989.727981 102*1988.855295 
102*1988.855295 102*1987.982608 
102*1987.982608 102*1987.109921 
102*1987.109921 102*1986.237234 
102*1986.237234 102*1985.364547 
102*1985.364547 102*1984.491861 
102*1984.491861 102*1983.619174 
102*2028.126200 102*2027.253513 
102*2027.253513 102*2026.380826 
102*2026.380826 102*2025.508139 
102*2025.508139 102*2024.635453 
102*2024.635453 102*2023.762766 
102*2023.762766 102*2022.890079 
102*2022.890079 102*2022.017392 
102*2022.017392 102*2021.144705 
102*2021.144705 102*2020.272019 
102*2020.272019 102*2019.399332 
102*2019.399332 102*2018.526645 
102*2018.526645 102*2017.653958 
102*2017.653958 102*2016.781272 
102*2016.781272 102*2015.908585 
102*2015.908585 102*2015.035898 
102*2015.035898 102*2014.163211 
102*2014.163211 102*2013.290524 
102*2013.290524 102*2012.417838 
102*2012.417838 102*2011.545151 
102*2011.545151 102*2010.672464 
102*2010.672464 102*2009.799777 
102*2009.799777 102*2008.927091 
102*2008.927091 102*2008.054404 
102*2008.054404 102*2007.181717 
102*2007.181717 102*2006.309030 
102*2006.309030 102*2005.436343 
102*2005.436343 102*2004.563657 
102*2004.563657 102*2003.690970 
102*2003.690970 102*2002.818283 
102*2002.818283 102*2001.945596 
102*2001.945596 102*2001.072909 
102*2001.072909 102*2000.200223 
102*2000.200223 102*1999.327536 
102*1999.327536 102*1998.454849 
102*1998.454849 102*1997.582162 
102*1997.582162 102*1996.709476 
102*1996.709476 102*1995.836789 
102*1995.836789 102*1994.964102 
102*1994.964102 102*1994.091415 
102*1994.091415 102*1993.218728 
102*1993.218728 102*1992.346042 
102*1992.346042 102*1991.473355 
102*1991.473355 102*1990.600668 
102*1990.600668 102*1989.727981 
102*1989.727981 102*1988.855295 
102*1988.855295 102*1987.982608 
102*1987.982608 102*1987.109921 
102*1987.109921 102*1986.237234 
102*1986.237234 102*1985.364547 
102*1985.364547 102*1984.491861 
102*1984.491861 102*1983.619174 
102*2030.626200 102*2029.753513 
102*2029.753513 102*2028.880826 
102*2028.880826 102*2028.008139 
102*2028.008139 102*2027.135453 
102*2027.135453 102*2026.262766 
102*2026.262766 102*2025.390079 
102*2025.390079 102*2024.517392 
102*2024.517392 102*2023.644705 
102*2023.644705 102*2022.772019 
102*2022.772019 102*2021.899332 
102*2021.899332 102*2021.026645 
102*2021.026645 102*2020.153958 
102*2020.153958 102*2019.281272 
102*2019.281272 102*2018.408585 
102*2018.408585 102*2017.535898 
102*2017.535898 102*2016.663211 
102*2016.663211 102*2015.790524 
102*2015.790524 102*2014.917838 
102*2014.917838 102*2014.045151 
102*2014.045151 102*2013.172464 
102*2013.172464 102*2012.299777 
102*2012.299777 102*2011.427091 
102*2011.427091 102*2010.554404 
102*2010.554404 102*2009.681717 
102*2009.681717 102*2008.809030 
102*2008.809030 102*2007.936343 
102*2007.936343 102*2007.063657 
102*2007.063657 102*2006.190970 
102*2006.190970 102*2005.318283 
102*2005.318283 102*2004.445596 
102*2004.445596 102*2003.572909 
102*2003.572909 102*2002.700223 
102*2002.700223 102*2001.827536 
102*2001.827536 102*2000.954849 
102*2000.954849 102*2000.082162 
102*2000.082162 102*1999.209476 
102*1999.209476 102*1998.336789 
102*1998.336789 102*1997.464102 
102*1997.464102 102*1996.591415 
102*1996.591415 102*1995.718728 
102*1995.718728 102*1994.846042 
102*1994.846042 102*1993.973355 
102*1993.973355 102*1993.100668 
102*1993.100668 102*1992.227981 
102*1992.227981 102*1991.355295 
102*1991.355295 102*1990.482608 
102*1990.482608 102*1989.609921 
102*1989.609921 102*1988.737234 
102*1988.737234 102*1987.864547 
102*1987.864547 102*1986.991861 
102*1986.991861 102*1986.119174 
102*2030.626200 102*2029.753513 
102*2029.753513 102*2028.880826 
102*2028.880826 102*2028.008139 
102*2028.008139 102*2027.135453 
102*2027.135453 102*2026.262766 
102*2026.262766 102*2025.390079 
102*2025.390079 102*2024.517392 
102*2024.517392 102*2023.644705 
102*2023.644705 102*2022.772019 
102*2022.772019 102*2021.899332 
102*2021.899332 102*2021.026645 
102*2021.026645 102*2020.153958 
102*2020.153958 102*2019.281272 
102*2019.281272 102*2018.408585 
102*2018.408585 102*2017.535898 
102*2017.535898 102*2016.663211 
102*2016.663211 102*2015.790524 
102*2015.790524 102*2014.917838 
102*2014.917838 102*2014.045151 
102*2014.045151 102*2013.172464 
102*2013.172464 102*2012.299777 
102*2012.299777 102*2011.427091 
102*2011.427091 102*2010.554404 
102*2010.554404 102*2009.681717 
102*2009.681717 102*2008.809030 
102*2008.809030 102*2007.936343 
102*2007.936343 102*2007.063657 
102*2007.063657 102*2006.190970 
102*2006.190970 102*2005.318283 
102*2005.318283 102*2004.445596 
102*2004.445596 102*2003.572909 
102*2003.572909 102*2002.700223 
102*2002.700223 102*2001.827536 
102*2001.827536 102*2000.954849 
102*2000.954849 102*2000.082162 
102*2000.082162 102*1999.209476 
102*1999.209476 102*1998.336789 
102*1998.336789 102*1997.464102 
102*1997.464102 102*1996.591415 
102*1996.591415 102*1995.718728 
102*1995.718728 102*1994.846042 
102*1994.846042 102*1993.973355 
102*1993.973355 102*1993.100668 
102*1993.100668 102*1992.227981 
102*1992.227981 102*1991.355295 
102*1991.355295 102*1990.482608 
102*1990.482608 102*1989.609921 
102*1989.609921 102*1988.737234 
102*1988.737234 102*1987.864547 
102*1987.864547 102*1986.991861 
102*1986.991861 102*1986.119174 
102*2033.126200 102*2032.253513 
102*2032.253513 102*2031.380826 
102*2031.380826 102*2030.508139 
102*2030.508139 102*2029.635453 
102*2029.635453 102*2028.762766 
102*2028.762766 102*2027.890079 
102*2027.890079 102*2027.017392 
102*2027.017392 102*2026.144705 
102*2026.144705 102*2025.272019 
102*2025.272019 102*2024.399332 
102*2024.399332 102*2023.526645 
102*2023.526645 102*2022.653958 
102*2022.653958 102*2021.781272 
102*2021.781272 102*2020.908585 
102*2020.908585 102*2020.035898 
102*2020.035898 102*2019.163211 
102*2019.163211 102*2018.290524 
102*2018.290524 102*2017.417838 
102*2017.417838 102*2016.545151 
102*2016.545151 102*2015.672464 
102*2015.672464 102*2014.799777 
102*2014.799777 102*2013.927091 
102*2013.927091 102*2013.054404 
102*2013.054404 102*2012.181717 
102*2012.181717 102*2011.309030 
102*2011.309030 102*2010.436343 
102*2010.436343 102*2009.563657 
102*2009.563657 102*2008.690970 
102*2008.690970 102*2007.818283 
102*2007.818283 102*2006.945596 
102*2006.945596 102*2006.072909 
102*2006.072909 102*2005.200223 
102*2005.200223 102*2004.327536 
102*2004.327536 102*2003.454849 
102*2003.454849 102*2002.582162 
102*2002.582162 102*2001.709476 
102*2001.709476 102*2000.836789 
102*2000.836789 102*1999.964102 
102*1999.964102 102*1999.091415 
102*1999.091415 102*1998.218728 
102*1998.218728 102*1997.346042 
102*1997.346042 102*1996.473355 
102*1996.473355 102*1995.600668 
102*1995.600668 102*1994.727981 
102*1994.727981 102*1993.855295 
102*1993.855295 102*1992.982608 
102*1992.982608 102*1992.109921 
102*1992.109921 102*1991.237234 
102*1991.237234 102*1990.364547 
102*1990.364547 102*1989.491861 
102*1989.491861 102*1988.619174 
102*2033.126200 102*2032.253513 
102*2032.253513 102*2031.380826 
102*2031.380826 102*2030.508139 
102*2030.508139 102*2029.635453 
102*2029.635453 102*2028.762766 
102*2028.762766 102*2027.890079 
102*2027.890079 102*2027.017392 
102*2027.017392 102*2026.144705 
102*2026.144705 102*2025.272019 
102*2025.272019 102*2024.399332 
102*2024.399332 102*2023.526645 
102*2023.526645 102*2022.653958 
102*2022.653958 102*2021.781272 
102*2021.781272 102*2020.908585 
102*2020.908585 102*2020.035898 
102*2020.035898 102*2019.163211 
102*2019.163211 102*2018.290524 
102*2018.290524 102*2017.417838 
102*2017.417838 102*2016.545151 
102*2016.545151 102*2015.672464 
102*2015.672464 102*2014.799777 
102*2014.799777 102*2013.927091 
102*2013.927091 102*2013.054404 
102*2013.054404 102*2012.181717 
102*2012.181717 102*2011.309030 
102*2011.309030 102*2010.436343 
102*2010.436343 102*2009.563657 
102*2009.563657 102*2008.690970 
102*2008.690970 102*2007.818283 
102*2007.818283 102*2006.945596 
102*2006.945596 102*2006.072909 
102*2006.072909 102*2005.200223 
102*2005.200223 102*2004.327536 
102*2004.327536 102*2003.454849 
102*2003.454849 102*2002.582162 
102*2002.582162 102*2001.709476 
102*2001.709476 102*2000.836789 
102*2000.836789 102*1999.964102 
102*1999.964102 102*1999.091415 
102*1999.091415 102*1998.218728 
102*1998.218728 102*1997.346042 
102*1997.346042 102*1996.473355 
102*1996.473355 102*1995.600668 
102*1995.600668 102*1994.727981 
102*1994.727981 102*1993.855295 
102*1993.855295 102*1992.982608 
102*1992.982608 102*1992.109921 
102*1992.109921 102*1991.237234 
102*1991.237234 102*1990.364547 
102*1990.364547 102*1989.491861 
102*1989.491861 102*1988.619174 
102*2035.626200 102*2034.753513 
102*2034.753513 102*2033.880826 
102*2033.880826 102*2033.008139 
102*2033.008139 102*2032.135453 
102*2032.135453 102*2031.262766 
102*2031.262766 102*2030.390079 
102*2030.390079 102*2029.517392 
102*2029.517392 102*2028.644705 
102*2028.644705 102*2027.772019 
102*2027.772019 102*2026.899332 
102*2026.899332 102*2026.026645 
102*2026.026645 102*2025.153958 
102*2025.153958 102*2024.281272 
102*2024.281272 102*2023.408585 
102*2023.408585 102*2022.535898 
102*2022.535898 102*2021.663211 
102*2021.663211 102*2020.790524 
102*2020.790524 102*2019.917838 
102*2019.917838 102*2019.045151 
102*2019.045151 102*2018.172464 
102*2018.172464 102*2017.299777 
102*2017.299777 102*2016.427091 
102*2016.427091 102*2015.554404 
102*2015.554404 102*2014.681717 
102*2014.681717 102*2013.809030 
102*2013.809030 102*2012.936343 
102*2012.936343 102*2012.063657 
102*2012.063657 102*2011.190970 
102*2011.190970 102*2010.318283 
102*2010.318283 102*2009.445596 
102*2009.445596 102*2008.572909 
102*2008.572909 102*2007.700223 
102*2007.700223 102*2006.827536 
102*2006.827536 102*2005.954849 
102*2005.954849 102*2005.082162 
102*2005.082162 102*2004.209476 
102*2004.209476 102*2003.336789 
102*2003.336789 102*2002.464102 
102*2002.464102 102*2001.591415 
102*2001.591415 102*2000.718728 
102*2000.718728 102*1999.846042 
102*1999.846042 102*1998.973355 
102*1998.973355 102*1998.100668 
102*1998.100668 102*1997.227981 
102*1997.227981 102*1996.355295 
102*1996.355295 102*1995.482608 
102*1995.482608 102*1994.609921 
102*1994.609921 102*1993.737234 
102*1993.737234 102*1992.864547 
102*1992.864547 102*1991.991861 
102*1991.991861 102*1991.119174 
102*2035.626200 102*2034.753513 
102*2034.753513 102*2033.880826 
102*2033.880826 102*2033.008139 
102*2033.008139 102*2032.135453 
102*2032.135453 102*2031.262766 
102*2031.262766 102*2030.390079 
102*2030.390079 102*2029.517392 
102*2029.517392 102*2028.644705 
102*2028.644705 102*2027.772019 
102*2027.772019 102*2026.899332 
102*2026.899332 102*2026.026645 
102*2026.026645 102*2025.153958 
102*2025.153958 102*2024.281272 
102*2024.281272 102*2023.408585 
102*2023.408585 102*2022.535898 
102*2022.535898 102*2021.663211 
102*2021.663211 102*2020.790524 
102*2020.790524 102*2019.917838 
102*2019.917838 102*2019.045151 
102*2019.045151 102*2018.172464 
102*2018.172464 102*2017.299777 
102*2017.299777 102*2016.427091 
102*2016.427091 102*2015.554404 
102*2015.554404 102*2014.681717 
102*2014.681717 102*2013.809030 
102*2013.809030 102*2012.936343 
102*2012.936343 102*2012.063657 
102*2012.063657 102*2011.190970 
102*2011.190970 102*2010.318283 
102*2010.318283 102*2009.445596 
102*2009.445596 102*2008.572909 
102*2008.572909 102*2007.700223 
102*2007.700223 102*2006.827536 
102*2006.827536 102*2005.954849 
102*2005.954849 102*2005.082162 
102*2005.082162 102*2004.209476 
102*2004.209476 102*2003.336789 
102*2003.336789 102*2002.464102 
102*2002.464102 102*2001.591415 
102*2001.591415 102*2000.718728 
102*2000.718728 102*1999.846042 
102*1999.846042 102*1998.973355 
102*1998.973355 102*1998.100668 
102*1998.100668 102*1997.227981 
102*1997.227981 102*1996.355295 
102*1996.355295 102*1995.482608 
102*1995.482608 102*1994.609921 
102*1994.609921 102*1993.737234 
102*1993.737234 102*1992.864547 
102*1992.864547 102*1991.991861 
102*1991.991861 102*1991.119174 
102*2038.126200 102*2037.253513 
102*2037.253513 102*2036.380826 
102*2036.380826 102*2035.508139 
102*2035.508139 102*2034.635453 
102*2034.635453 102*2033.762766 
102*2033.762766 102*2032.890079 
102*2032.890079 102*2032.017392 
102*2032.017392 102*2031.144705 
102*2031.144705 102*2030.272019 
102*2030.272019 102*2029.399332 
102*2029.399332 102*2028.526645 
102*2028.526645 102*2027.653958 
102*2027.653958 102*2026.781272 
102*2026.781272 102*2025.908585 
102*2025.908585 102*2025.035898 
102*2025.035898 102*2024.163211 
102*2024.163211 102*2023.290524 
102*2023.290524 102*2022.417838 
102*2022.417838 102*2021.545151 
102*2021.545151 102*2020.672464 
102*2020.672464 102*2019.799777 
102*2019.799777 102*2018.927091 
102*2018.927091 102*2018.054404 
102*2018.054404 102*2017.181717 
102*2017.181717 102*2016.309030 
102*2016.309030 102*2015.436343 
102*2015.436343 102*2014.563657 
102*2014.563657 102*2013.690970 
102*2013.690970 102*2012.818283 
102*2012.818283 102*2011.945596 
102*2011.945596 102*2011.072909 
102*2011.072909 102*2010.200223 
102*2010.200223 102*2009.327536 
102*2009.327536 102*2008.454849 
102*2008.454849 102*2007.582162 
102*2007.582162 102*2006.709476 
102*2006.709476 102*2005.836789 
102*2005.836789 102*2004.964102 
102*2004.964102 102*2004.091415 
102*2004.091415 102*2003.218728 
102*2003.218728 102*2002.346042 
102*2002.346042 102*2001.473355 
102*2001.473355 102*2000.600668 
102*2000.600668 102*1999.727981 
102*1999.727981 102*1998.855295 
102*1998.855295 102*1997.982608 
102*1997.982608 102*1997.109921 
102*1997.109921 102*1996.237234 
102*1996.237234 102*1995.364547 
102*1995.364547 102*1994.491861 
102*1994.491861 102*1993.619174 
102*2038.126200 102*2037.253513 
102*2037.253513 102*2036.380826 
102*2036.380826 102*2035.508139 
102*2035.508139 102*2034.635453 
102*2034.635453 102*2033.762766 
102*2033.762766 102*2032.890079 
102*2032.890079 102*2032.017392 
102*2032.017392 102*2031.144705 
102*2031.144705 102*2030.272019 
102*2030.272019 102*2029.399332 
102*2029.399332 102*2028.526645 
102*2028.526645 102*2027.653958 
102*2027.653958 102*2026.781272 
102*2026.781272 102*2025.908585 
102*2025.908585 102*2025.035898 
102*2025.035898 102*2024.163211 
102*2024.163211 102*2023.290524 
102*2023.290524 102*2022.417838 
102*2022.417838 102*2021.545151 
102*2021.545151 102*2020.672464 
102*2020.672464 102*2019.799777 
102*2019.799777 102*2018.927091 
102*2018.927091 102*2018.054404 
102*2018.054404 102*2017.181717 
102*2017.181717 102*2016.309030 
102*2016.309030 102*2015.436343 
102*2015.436343 102*2014.563657 
102*2014.563657 102*2013.690970 
102*2013.690970 102*2012.818283 
102*2012.818283 102*2011.945596 
102*2011.945596 102*2011.072909 
102*2011.072909 102*2010.200223 
102*2010.200223 102*2009.327536 
102*2009.327536 102*2008.454849 
102*2008.454849 102*2007.582162 
102*2007.582162 102*2006.709476 
102*2006.709476 102*2005.836789 
102*2005.836789 102*2004.964102 
102*2004.964102 102*2004.091415 
102*2004.091415 102*2003.218728 
102*2003.218728 102*2002.346042 
102*2002.346042 102*2001.473355 
102*2001.473355 102*2000.600668 
102*2000.600668 102*1999.727981 
102*1999.727981 102*1998.855295 
102*1998.855295 102*1997.982608 
102*1997.982608 102*1997.109921 
102*1997.109921 102*1996.237234 
102*1996.237234 102*1995.364547 
102*1995.364547 102*1994.491861 
102*1994.491861 102*1993.619174 
102*2040.626200 102*2039.753513 
102*2039.753513 102*2038.880826 
102*2038.880826 102*2038.008139 
102*2038.008139 102*2037.135453 
102*2037.135453 102*2036.262766 
102*2036.262766 102*2035.390079 
102*2035.390079 102*2034.517392 
102*2034.517392 102*2033.644705 
102*2033.644705 102*2032.772019 
102*2032.772019 102*2031.899332 
102*2031.899332 102*2031.026645 
102*2031.026645 102*2030.153958 
102*2030.153958 102*2029.281272 
102*2029.281272 102*2028.408585 
102*2028.408585 102*2027.535898 
102*2027.535898 102*2026.663211 
102*2026.663211 102*2025.790524 
102*2025.790524 102*2024.917838 
102*2024.917838 102*2024.045151 
102*2024.045151 102*2023.172464 
102*2023.172464 102*2022.299777 
102*2022.299777 102*2021.427091 
102*2021.427091 102*2020.554404 
102*2020.554404 102*2019.681717 
102*2019.681717 102*2018.809030 
102*2018.809030 102*2017.936343 
102*2017.936343 102*2017.063657 
102*2017.063657 102*2016.190970 
102*2016.190970 102*2015.318283 
102*2015.318283 102*2014.445596 
102*2014.445596 102*2013.572909 
102*2013.572909 102*2012.700223 
102*2012.700223 102*2011.827536 
102*2011.827536 102*2010.954849 
102*2010.954849 102*2010.082162 
102*2010.082162 102*2009.209476 
102*2009.209476 102*2008.336789 
102*2008.336789 102*2007.464102 
102*2007.464102 102*2006.591415 
102*2006.591415 102*2005.718728 
102*2005.718728 102*2004.846042 
102*2004.846042 102*2003.973355 
102*2003.973355 102*2003.100668 
102*2003.100668 102*2002.227981 
102*2002.227981 102*2001.355295 
102*2001.355295 102*2000.482608 
102*2000.482608 102*1999.609921 
102*1999.609921 102*1998.737234 
102*1998.737234 102*1997.864547 
102*1997.864547 102*1996.991861 
102*1996.991861 102*1996.119174 
102*2040.626200 102*2039.753513 
102*2039.753513 102*2038.880826 
102*2038.880826 102*2038.008139 
102*2038.008139 102*2037.135453 
102*2037.135453 102*2036.262766 
102*2036.262766 102*2035.390079 
102*2035.390079 102*2034.517392 
102*2034.517392 102*2033.644705 
102*2033.644705 102*2032.772019 
102*2032.772019 102*2031.899332 
102*2031.899332 102*2031.026645 
102*2031.026645 102*2030.153958 
102*2030.153958 102*2029.281272 
102*2029.281272 102*2028.408585 
102*2028.408585 102*2027.535898 
102*2027.535898 102*2026.663211 
102*2026.663211 102*2025.790524 
102*2025.790524 102*2024.917838 
102*2024.917838 102*2024.045151 
102*2024.045151 102*2023.172464 
102*2023.172464 102*2022.299777 
102*2022.299777 102*2021.427091 
102*2021.427091 102*2020.554404 
102*2020.554404 102*2019.681717 
102*2019.681717 102*2018.809030 
102*2018.809030 102*2017.936343 
102*2017.936343 102*2017.063657 
102*2017.063657 102*2016.190970 
102*2016.190970 102*2015.318283 
102*2015.318283 102*2014.445596 
102*2014.445596 102*2013.572909 
102*2013.572909 102*2012.700223 
102*2012.700223 102*2011.827536 
102*2011.827536 102*2010.954849 
102*2010.954849 102*2010.082162 
102*2010.082162 102*2009.209476 
102*2009.209476 102*2008.336789 
102*2008.336789 102*2007.464102 
102*2007.464102 102*2006.591415 
102*2006.591415 102*2005.718728 
102*2005.718728 102*2004.846042 
102*2004.846042 102*2003.973355 
102*2003.973355 102*2003.100668 
102*2003.100668 102*2002.227981 
102*2002.227981 102*2001.355295 
102*2001.355295 102*2000.482608 
102*2000.482608 102*1999.609921 
102*1999.609921 102*1998.737234 
102*1998.737234 102*1997.864547 
102*1997.864547 102*1996.991861 
102*1996.991861 102*1996.119174 
102*2043.126200 102*2042.253513 
102*2042.253513 102*2041.380826 
102*2041.380826 102*2040.508139 
102*2040.508139 102*2039.635453 
102*2039.635453 102*2038.762766 
102*2038.762766 102*2037.890079 
102*2037.890079 102*2037.017392 
102*2037.017392 102*2036.144705 
102*2036.144705 102*2035.272019 
102*2035.272019 102*2034.399332 
102*2034.399332 102*2033.526645 
102*2033.526645 102*2032.653958 
102*2032.653958 102*2031.781272 
102*2031.781272 102*2030.908585 
102*2030.908585 102*2030.035898 
102*2030.035898 102*2029.163211 
102*2029.163211 102*2028.290524 
102*2028.290524 102*2027.417838 
102*2027.417838 102*2026.545151 
102*2026.545151 102*2025.672464 
102*2025.672464 102*2024.799777 
102*2024.799777 102*2023.927091 
102*2023.927091 102*2023.054404 
102*2023.054404 102*2022.181717 
102*2022.181717 102*2021.309030 
102*2021.309030 102*2020.436343 
102*2020.436343 102*2019.563657 
102*2019.563657 102*2018.690970 
102*2018.690970 102*2017.818283 
102*2017.818283 102*2016.945596 
102*2016.945596 102*2016.072909 
102*2016.072909 102*2015.200223 
102*2015.200223 102*2014.327536 
102*2014.327536 102*2013.454849 
102*2013.454849 102*2012.582162 
102*2012.582162 102*2011.709476 
102*2011.709476 102*2010.836789 
102*2010.836789 102*2009.964102 
102*2009.964102 102*2009.091415 
102*2009.091415 102*2008.218728 
102*2008.218728 102*2007.346042 
102*2007.346042 102*2006.473355 
102*2006.473355 102*2005.600668 
102*2005.600668 102*2004.727981 
102*2004.727981 102*2003.855295 
102*2003.855295 102*2002.982608 
102*2002.982608 102*2002.109921 
102*2002.109921 102*2001.237234 
102*2001.237234 102*2000.364547 
102*2000.364547 102*1999.491861 
102*1999.491861 102*1998.619174 
102*2043.126200 102*2042.253513 
102*2042.253513 102*2041.380826 
102*2041.380826 102*2040.508139 
102*2040.508139 102*2039.635453 
102*2039.635453 102*2038.762766 
102*2038.762766 102*2037.890079 
102*2037.890079 102*2037.017392 
102*2037.017392 102*2036.144705 
102*2036.144705 102*2035.272019 
102*2035.272019 102*2034.399332 
102*2034.399332 102*2033.526645 
102*2033.526645 102*2032.653958 
102*2032.653958 102*2031.781272 
102*2031.781272 102*2030.908585 
102*2030.908585 102*2030.035898 
102*2030.035898 102*2029.163211 
102*2029.163211 102*2028.290524 
102*2028.290524 102*2027.417838 
102*2027.417838 102*2026.545151 
102*2026.545151 102*2025.672464 
102*2025.672464 102*2024.799777 
102*2024.799777 102*2023.927091 
102*2023.927091 102*2023.054404 
102*2023.054404 102*2022.181717 
102*2022.181717 102*2021.309030 
102*2021.309030 102*2020.436343 
102*2020.436343 102*2019.563657 
102*2019.563657 102*2018.690970 
102*2018.690970 102*2017.818283 
102*2017.818283 102*2016.945596 
102*2016.945596 102*2016.072909 
102*2016.072909 102*2015.200223 
102*2015.200223 102*2014.327536 
102*2014.327536 102*2013.454849 
102*2013.454849 102*2012.582162 
102*2012.582162 102*2011.709476 
102*2011.709476 102*2010.836789 
102*2010.836789 102*2009.964102 
102*2009.964102 102*2009.091415 
102*2009.091415 102*2008.218728 
102*2008.218728 102*2007.346042 
102*2007.346042 102*2006.473355 
102*2006.473355 102*2005.600668 
102*2005.600668 102*2004.727981 
102*2004.727981 102*2003.855295 
102*2003.855295 102*2002.982608 
102*2002.982608 102*2002.109921 
102*2002.109921 102*2001.237234 
102*2001.237234 102*2000.364547 
102*2000.364547 102*1999.491861 
102*1999.491861 102*1998.619174 
102*2045.626200 102*2044.753513 
102*2044.753513 102*2043.880826 
102*2043.880826 102*2043.008139 
102*2043.008139 102*2042.135453 
102*2042.135453 102*2041.262766 
102*2041.262766 102*2040.390079 
102*2040.390079 102*2039.517392 
102*2039.517392 102*2038.644705 
102*2038.644705 102*2037.772019 
102*2037.772019 102*2036.899332 
102*2036.899332 102*2036.026645 
102*2036.026645 102*2035.153958 
102*2035.153958 102*2034.281272 
102*2034.281272 102*2033.408585 
102*2033.408585 102*2032.535898 
102*2032.535898 102*2031.663211 
102*2031.663211 102*2030.790524 
102*2030.790524 102*2029.917838 
102*2029.917838 102*2029.045151 
102*2029.045151 102*2028.172464 
102*2028.172464 102*2027.299777 
102*2027.299777 102*2026.427091 
102*2026.427091 102*2025.554404 
102*2025.554404 102*2024.681717 
102*2024.681717 102*2023.809030 
102*2023.809030 102*2022.936343 
102*2022.936343 102*2022.063657 
102*2022.063657 102*2021.190970 
102*2021.190970 102*2020.318283 
102*2020.318283 102*2019.445596 
102*2019.445596 102*2018.572909 
102*2018.572909 102*2017.700223 
102*2017.700223 102*2016.827536 
102*2016.827536 102*2015.954849 
102*2015.954849 102*2015.082162 
102*2015.082162 102*2014.209476 
102*2014.209476 102*2013.336789 
102*2013.336789 102*2012.464102 
102*2012.464102 102*2011.591415 
102*2011.591415 102*2010.718728 
102*2010.718728 102*2009.846042 