ZCORN
102*2060.599665 102*2058.312885 
102*2058.312885 102*2056.026105 
102*2056.026105 102*2053.739325 
102*2053.739325 102*2051.452546 
102*2051.452546 102*2049.165766 
102*2049.165766 102*2046.878986 
102*2046.878986 102*2044.592206 
102*2044.592206 102*2042.305426 
102*2042.305426 102*2040.018647 
102*2040.018647 102*2037.731867 
102*2037.731867 102*2035.445087 
102*2035.445087 102*2033.158307 
102*2033.158307 102*2030.871527 
102*2030.871527 102*2028.584748 
102*2028.584748 102*2026.297968 
102*2026.297968 102*2024.011188 
102*2024.011188 102*2021.724408 
102*2021.724408 102*2019.437628 
102*2019.437628 102*2017.150849 
102*2017.150849 102*2014.864069 
102*2014.864069 102*2012.577289 
102*2012.577289 102*2010.290509 
102*2010.290509 102*2008.003729 
102*2008.003729 102*2005.716950 
102*2005.716950 102*2003.430170 
102*2003.430170 102*2001.143390 
102*2001.143390 102*1998.856610 
102*1998.856610 102*1996.569830 
102*1996.569830 102*1994.283050 
102*1994.283050 102*1991.996271 
102*1991.996271 102*1989.709491 
102*1989.709491 102*1987.422711 
102*1987.422711 102*1985.135931 
102*1985.135931 102*1982.849151 
102*1982.849151 102*1980.562372 
102*1980.562372 102*1978.275592 
102*1978.275592 102*1975.988812 
102*1975.988812 102*1973.702032 
102*1973.702032 102*1971.415252 
102*1971.415252 102*1969.128473 
102*1969.128473 102*1966.841693 
102*1966.841693 102*1964.554913 
102*1964.554913 102*1962.268133 
102*1962.268133 102*1959.981353 
102*1959.981353 102*1957.694574 
102*1957.694574 102*1955.407794 
102*1955.407794 102*1953.121014 
102*1953.121014 102*1950.834234 
102*1950.834234 102*1948.547454 
102*1948.547454 102*1946.260675 
102*1946.260675 102*1943.973895 
102*2063.099665 102*2060.812885 
102*2060.812885 102*2058.526105 
102*2058.526105 102*2056.239325 
102*2056.239325 102*2053.952546 
102*2053.952546 102*2051.665766 
102*2051.665766 102*2049.378986 
102*2049.378986 102*2047.092206 
102*2047.092206 102*2044.805426 
102*2044.805426 102*2042.518647 
102*2042.518647 102*2040.231867 
102*2040.231867 102*2037.945087 
102*2037.945087 102*2035.658307 
102*2035.658307 102*2033.371527 
102*2033.371527 102*2031.084748 
102*2031.084748 102*2028.797968 
102*2028.797968 102*2026.511188 
102*2026.511188 102*2024.224408 
102*2024.224408 102*2021.937628 
102*2021.937628 102*2019.650849 
102*2019.650849 102*2017.364069 
102*2017.364069 102*2015.077289 
102*2015.077289 102*2012.790509 
102*2012.790509 102*2010.503729 
102*2010.503729 102*2008.216950 
102*2008.216950 102*2005.930170 
102*2005.930170 102*2003.643390 
102*2003.643390 102*2001.356610 
102*2001.356610 102*1999.069830 
102*1999.069830 102*1996.783050 
102*1996.783050 102*1994.496271 
102*1994.496271 102*1992.209491 
102*1992.209491 102*1989.922711 
102*1989.922711 102*1987.635931 
102*1987.635931 102*1985.349151 
102*1985.349151 102*1983.062372 
102*1983.062372 102*1980.775592 
102*1980.775592 102*1978.488812 
102*1978.488812 102*1976.202032 
102*1976.202032 102*1973.915252 
102*1973.915252 102*1971.628473 
102*1971.628473 102*1969.341693 
102*1969.341693 102*1967.054913 
102*1967.054913 102*1964.768133 
102*1964.768133 102*1962.481353 
102*1962.481353 102*1960.194574 
102*1960.194574 102*1957.907794 
102*1957.907794 102*1955.621014 
102*1955.621014 102*1953.334234 
102*1953.334234 102*1951.047454 
102*1951.047454 102*1948.760675 
102*1948.760675 102*1946.473895 
102*2063.099665 102*2060.812885 
102*2060.812885 102*2058.526105 
102*2058.526105 102*2056.239325 
102*2056.239325 102*2053.952546 
102*2053.952546 102*2051.665766 
102*2051.665766 102*2049.378986 
102*2049.378986 102*2047.092206 
102*2047.092206 102*2044.805426 
102*2044.805426 102*2042.518647 
102*2042.518647 102*2040.231867 
102*2040.231867 102*2037.945087 
102*2037.945087 102*2035.658307 
102*2035.658307 102*2033.371527 
102*2033.371527 102*2031.084748 
102*2031.084748 102*2028.797968 
102*2028.797968 102*2026.511188 
102*2026.511188 102*2024.224408 
102*2024.224408 102*2021.937628 
102*2021.937628 102*2019.650849 
102*2019.650849 102*2017.364069 
102*2017.364069 102*2015.077289 
102*2015.077289 102*2012.790509 
102*2012.790509 102*2010.503729 
102*2010.503729 102*2008.216950 
102*2008.216950 102*2005.930170 
102*2005.930170 102*2003.643390 
102*2003.643390 102*2001.356610 
102*2001.356610 102*1999.069830 
102*1999.069830 102*1996.783050 
102*1996.783050 102*1994.496271 
102*1994.496271 102*1992.209491 
102*1992.209491 102*1989.922711 
102*1989.922711 102*1987.635931 
102*1987.635931 102*1985.349151 
102*1985.349151 102*1983.062372 
102*1983.062372 102*1980.775592 
102*1980.775592 102*1978.488812 
102*1978.488812 102*1976.202032 
102*1976.202032 102*1973.915252 
102*1973.915252 102*1971.628473 
102*1971.628473 102*1969.341693 
102*1969.341693 102*1967.054913 
102*1967.054913 102*1964.768133 
102*1964.768133 102*1962.481353 
102*1962.481353 102*1960.194574 
102*1960.194574 102*1957.907794 
102*1957.907794 102*1955.621014 
102*1955.621014 102*1953.334234 
102*1953.334234 102*1951.047454 
102*1951.047454 102*1948.760675 
102*1948.760675 102*1946.473895 
102*2065.599665 102*2063.312885 
102*2063.312885 102*2061.026105 
102*2061.026105 102*2058.739325 
102*2058.739325 102*2056.452546 
102*2056.452546 102*2054.165766 
102*2054.165766 102*2051.878986 
102*2051.878986 102*2049.592206 
102*2049.592206 102*2047.305426 
102*2047.305426 102*2045.018647 
102*2045.018647 102*2042.731867 
102*2042.731867 102*2040.445087 
102*2040.445087 102*2038.158307 
102*2038.158307 102*2035.871527 
102*2035.871527 102*2033.584748 
102*2033.584748 102*2031.297968 
102*2031.297968 102*2029.011188 
102*2029.011188 102*2026.724408 
102*2026.724408 102*2024.437628 
102*2024.437628 102*2022.150849 
102*2022.150849 102*2019.864069 
102*2019.864069 102*2017.577289 
102*2017.577289 102*2015.290509 
102*2015.290509 102*2013.003729 
102*2013.003729 102*2010.716950 
102*2010.716950 102*2008.430170 
102*2008.430170 102*2006.143390 
102*2006.143390 102*2003.856610 
102*2003.856610 102*2001.569830 
102*2001.569830 102*1999.283050 
102*1999.283050 102*1996.996271 
102*1996.996271 102*1994.709491 
102*1994.709491 102*1992.422711 
102*1992.422711 102*1990.135931 
102*1990.135931 102*1987.849151 
102*1987.849151 102*1985.562372 
102*1985.562372 102*1983.275592 
102*1983.275592 102*1980.988812 
102*1980.988812 102*1978.702032 
102*1978.702032 102*1976.415252 
102*1976.415252 102*1974.128473 
102*1974.128473 102*1971.841693 
102*1971.841693 102*1969.554913 
102*1969.554913 102*1967.268133 
102*1967.268133 102*1964.981353 
102*1964.981353 102*1962.694574 
102*1962.694574 102*1960.407794 
102*1960.407794 102*1958.121014 
102*1958.121014 102*1955.834234 
102*1955.834234 102*1953.547454 
102*1953.547454 102*1951.260675 
102*1951.260675 102*1948.973895 
102*2065.599665 102*2063.312885 
102*2063.312885 102*2061.026105 
102*2061.026105 102*2058.739325 
102*2058.739325 102*2056.452546 
102*2056.452546 102*2054.165766 
102*2054.165766 102*2051.878986 
102*2051.878986 102*2049.592206 
102*2049.592206 102*2047.305426 
102*2047.305426 102*2045.018647 
102*2045.018647 102*2042.731867 
102*2042.731867 102*2040.445087 
102*2040.445087 102*2038.158307 
102*2038.158307 102*2035.871527 
102*2035.871527 102*2033.584748 
102*2033.584748 102*2031.297968 
102*2031.297968 102*2029.011188 
102*2029.011188 102*2026.724408 
102*2026.724408 102*2024.437628 
102*2024.437628 102*2022.150849 
102*2022.150849 102*2019.864069 
102*2019.864069 102*2017.577289 
102*2017.577289 102*2015.290509 
102*2015.290509 102*2013.003729 
102*2013.003729 102*2010.716950 
102*2010.716950 102*2008.430170 
102*2008.430170 102*2006.143390 
102*2006.143390 102*2003.856610 
102*2003.856610 102*2001.569830 
102*2001.569830 102*1999.283050 
102*1999.283050 102*1996.996271 
102*1996.996271 102*1994.709491 
102*1994.709491 102*1992.422711 
102*1992.422711 102*1990.135931 
102*1990.135931 102*1987.849151 
102*1987.849151 102*1985.562372 
102*1985.562372 102*1983.275592 
102*1983.275592 102*1980.988812 
102*1980.988812 102*1978.702032 
102*1978.702032 102*1976.415252 
102*1976.415252 102*1974.128473 
102*1974.128473 102*1971.841693 
102*1971.841693 102*1969.554913 
102*1969.554913 102*1967.268133 
102*1967.268133 102*1964.981353 
102*1964.981353 102*1962.694574 
102*1962.694574 102*1960.407794 
102*1960.407794 102*1958.121014 
102*1958.121014 102*1955.834234 
102*1955.834234 102*1953.547454 
102*1953.547454 102*1951.260675 
102*1951.260675 102*1948.973895 
102*2068.099665 102*2065.812885 
102*2065.812885 102*2063.526105 
102*2063.526105 102*2061.239325 
102*2061.239325 102*2058.952546 
102*2058.952546 102*2056.665766 
102*2056.665766 102*2054.378986 
102*2054.378986 102*2052.092206 
102*2052.092206 102*2049.805426 
102*2049.805426 102*2047.518647 
102*2047.518647 102*2045.231867 
102*2045.231867 102*2042.945087 
102*2042.945087 102*2040.658307 
102*2040.658307 102*2038.371527 
102*2038.371527 102*2036.084748 
102*2036.084748 102*2033.797968 
102*2033.797968 102*2031.511188 
102*2031.511188 102*2029.224408 
102*2029.224408 102*2026.937628 
102*2026.937628 102*2024.650849 
102*2024.650849 102*2022.364069 
102*2022.364069 102*2020.077289 
102*2020.077289 102*2017.790509 
102*2017.790509 102*2015.503729 
102*2015.503729 102*2013.216950 
102*2013.216950 102*2010.930170 
102*2010.930170 102*2008.643390 
102*2008.643390 102*2006.356610 
102*2006.356610 102*2004.069830 
102*2004.069830 102*2001.783050 
102*2001.783050 102*1999.496271 
102*1999.496271 102*1997.209491 
102*1997.209491 102*1994.922711 
102*1994.922711 102*1992.635931 
102*1992.635931 102*1990.349151 
102*1990.349151 102*1988.062372 
102*1988.062372 102*1985.775592 
102*1985.775592 102*1983.488812 
102*1983.488812 102*1981.202032 
102*1981.202032 102*1978.915252 
102*1978.915252 102*1976.628473 
102*1976.628473 102*1974.341693 
102*1974.341693 102*1972.054913 
102*1972.054913 102*1969.768133 
102*1969.768133 102*1967.481353 
102*1967.481353 102*1965.194574 
102*1965.194574 102*1962.907794 
102*1962.907794 102*1960.621014 
102*1960.621014 102*1958.334234 
102*1958.334234 102*1956.047454 
102*1956.047454 102*1953.760675 
102*1953.760675 102*1951.473895 
102*2068.099665 102*2065.812885 
102*2065.812885 102*2063.526105 
102*2063.526105 102*2061.239325 
102*2061.239325 102*2058.952546 
102*2058.952546 102*2056.665766 
102*2056.665766 102*2054.378986 
102*2054.378986 102*2052.092206 
102*2052.092206 102*2049.805426 
102*2049.805426 102*2047.518647 
102*2047.518647 102*2045.231867 
102*2045.231867 102*2042.945087 
102*2042.945087 102*2040.658307 
102*2040.658307 102*2038.371527 
102*2038.371527 102*2036.084748 
102*2036.084748 102*2033.797968 
102*2033.797968 102*2031.511188 
102*2031.511188 102*2029.224408 
102*2029.224408 102*2026.937628 
102*2026.937628 102*2024.650849 
102*2024.650849 102*2022.364069 
102*2022.364069 102*2020.077289 
102*2020.077289 102*2017.790509 
102*2017.790509 102*2015.503729 
102*2015.503729 102*2013.216950 
102*2013.216950 102*2010.930170 
102*2010.930170 102*2008.643390 
102*2008.643390 102*2006.356610 
102*2006.356610 102*2004.069830 
102*2004.069830 102*2001.783050 
102*2001.783050 102*1999.496271 
102*1999.496271 102*1997.209491 
102*1997.209491 102*1994.922711 
102*1994.922711 102*1992.635931 
102*1992.635931 102*1990.349151 
102*1990.349151 102*1988.062372 
102*1988.062372 102*1985.775592 
102*1985.775592 102*1983.488812 
102*1983.488812 102*1981.202032 
102*1981.202032 102*1978.915252 
102*1978.915252 102*1976.628473 
102*1976.628473 102*1974.341693 
102*1974.341693 102*1972.054913 
102*1972.054913 102*1969.768133 
102*1969.768133 102*1967.481353 
102*1967.481353 102*1965.194574 
102*1965.194574 102*1962.907794 
102*1962.907794 102*1960.621014 
102*1960.621014 102*1958.334234 
102*1958.334234 102*1956.047454 
102*1956.047454 102*1953.760675 
102*1953.760675 102*1951.473895 
102*2070.599665 102*2068.312885 
102*2068.312885 102*2066.026105 
102*2066.026105 102*2063.739325 
102*2063.739325 102*2061.452546 
102*2061.452546 102*2059.165766 
102*2059.165766 102*2056.878986 
102*2056.878986 102*2054.592206 
102*2054.592206 102*2052.305426 
102*2052.305426 102*2050.018647 
102*2050.018647 102*2047.731867 
102*2047.731867 102*2045.445087 
102*2045.445087 102*2043.158307 
102*2043.158307 102*2040.871527 
102*2040.871527 102*2038.584748 
102*2038.584748 102*2036.297968 
102*2036.297968 102*2034.011188 
102*2034.011188 102*2031.724408 
102*2031.724408 102*2029.437628 
102*2029.437628 102*2027.150849 
102*2027.150849 102*2024.864069 
102*2024.864069 102*2022.577289 
102*2022.577289 102*2020.290509 
102*2020.290509 102*2018.003729 
102*2018.003729 102*2015.716950 
102*2015.716950 102*2013.430170 
102*2013.430170 102*2011.143390 
102*2011.143390 102*2008.856610 
102*2008.856610 102*2006.569830 
102*2006.569830 102*2004.283050 
102*2004.283050 102*2001.996271 
102*2001.996271 102*1999.709491 
102*1999.709491 102*1997.422711 
102*1997.422711 102*1995.135931 
102*1995.135931 102*1992.849151 
102*1992.849151 102*1990.562372 
102*1990.562372 102*1988.275592 
102*1988.275592 102*1985.988812 
102*1985.988812 102*1983.702032 
102*1983.702032 102*1981.415252 
102*1981.415252 102*1979.128473 
102*1979.128473 102*1976.841693 
102*1976.841693 102*1974.554913 
102*1974.554913 102*1972.268133 
102*1972.268133 102*1969.981353 
102*1969.981353 102*1967.694574 
102*1967.694574 102*1965.407794 
102*1965.407794 102*1963.121014 
102*1963.121014 102*1960.834234 
102*1960.834234 102*1958.547454 
102*1958.547454 102*1956.260675 
102*1956.260675 102*1953.973895 
102*2070.599665 102*2068.312885 
102*2068.312885 102*2066.026105 
102*2066.026105 102*2063.739325 
102*2063.739325 102*2061.452546 
102*2061.452546 102*2059.165766 
102*2059.165766 102*2056.878986 
102*2056.878986 102*2054.592206 
102*2054.592206 102*2052.305426 
102*2052.305426 102*2050.018647 
102*2050.018647 102*2047.731867 
102*2047.731867 102*2045.445087 
102*2045.445087 102*2043.158307 
102*2043.158307 102*2040.871527 
102*2040.871527 102*2038.584748 
102*2038.584748 102*2036.297968 
102*2036.297968 102*2034.011188 
102*2034.011188 102*2031.724408 
102*2031.724408 102*2029.437628 
102*2029.437628 102*2027.150849 
102*2027.150849 102*2024.864069 
102*2024.864069 102*2022.577289 
102*2022.577289 102*2020.290509 
102*2020.290509 102*2018.003729 
102*2018.003729 102*2015.716950 
102*2015.716950 102*2013.430170 
102*2013.430170 102*2011.143390 
102*2011.143390 102*2008.856610 
102*2008.856610 102*2006.569830 
102*2006.569830 102*2004.283050 
102*2004.283050 102*2001.996271 
102*2001.996271 102*1999.709491 
102*1999.709491 102*1997.422711 
102*1997.422711 102*1995.135931 
102*1995.135931 102*1992.849151 
102*1992.849151 102*1990.562372 
102*1990.562372 102*1988.275592 
102*1988.275592 102*1985.988812 
102*1985.988812 102*1983.702032 
102*1983.702032 102*1981.415252 
102*1981.415252 102*1979.128473 
102*1979.128473 102*1976.841693 
102*1976.841693 102*1974.554913 
102*1974.554913 102*1972.268133 
102*1972.268133 102*1969.981353 
102*1969.981353 102*1967.694574 
102*1967.694574 102*1965.407794 
102*1965.407794 102*1963.121014 
102*1963.121014 102*1960.834234 
102*1960.834234 102*1958.547454 
102*1958.547454 102*1956.260675 
102*1956.260675 102*1953.973895 
102*2073.099665 102*2070.812885 
102*2070.812885 102*2068.526105 
102*2068.526105 102*2066.239325 
102*2066.239325 102*2063.952546 
102*2063.952546 102*2061.665766 
102*2061.665766 102*2059.378986 
102*2059.378986 102*2057.092206 
102*2057.092206 102*2054.805426 
102*2054.805426 102*2052.518647 
102*2052.518647 102*2050.231867 
102*2050.231867 102*2047.945087 
102*2047.945087 102*2045.658307 
102*2045.658307 102*2043.371527 
102*2043.371527 102*2041.084748 
102*2041.084748 102*2038.797968 
102*2038.797968 102*2036.511188 
102*2036.511188 102*2034.224408 
102*2034.224408 102*2031.937628 
102*2031.937628 102*2029.650849 
102*2029.650849 102*2027.364069 
102*2027.364069 102*2025.077289 
102*2025.077289 102*2022.790509 
102*2022.790509 102*2020.503729 
102*2020.503729 102*2018.216950 
102*2018.216950 102*2015.930170 
102*2015.930170 102*2013.643390 
102*2013.643390 102*2011.356610 
102*2011.356610 102*2009.069830 
102*2009.069830 102*2006.783050 
102*2006.783050 102*2004.496271 
102*2004.496271 102*2002.209491 
102*2002.209491 102*1999.922711 
102*1999.922711 102*1997.635931 
102*1997.635931 102*1995.349151 
102*1995.349151 102*1993.062372 
102*1993.062372 102*1990.775592 
102*1990.775592 102*1988.488812 
102*1988.488812 102*1986.202032 
102*1986.202032 102*1983.915252 
102*1983.915252 102*1981.628473 
102*1981.628473 102*1979.341693 
102*1979.341693 102*1977.054913 
102*1977.054913 102*1974.768133 
102*1974.768133 102*1972.481353 
102*1972.481353 102*1970.194574 
102*1970.194574 102*1967.907794 
102*1967.907794 102*1965.621014 
102*1965.621014 102*1963.334234 
102*1963.334234 102*1961.047454 
102*1961.047454 102*1958.760675 
102*1958.760675 102*1956.473895 
102*2073.099665 102*2070.812885 
102*2070.812885 102*2068.526105 
102*2068.526105 102*2066.239325 
102*2066.239325 102*2063.952546 
102*2063.952546 102*2061.665766 
102*2061.665766 102*2059.378986 
102*2059.378986 102*2057.092206 
102*2057.092206 102*2054.805426 
102*2054.805426 102*2052.518647 
102*2052.518647 102*2050.231867 
102*2050.231867 102*2047.945087 
102*2047.945087 102*2045.658307 
102*2045.658307 102*2043.371527 
102*2043.371527 102*2041.084748 
102*2041.084748 102*2038.797968 
102*2038.797968 102*2036.511188 
102*2036.511188 102*2034.224408 
102*2034.224408 102*2031.937628 
102*2031.937628 102*2029.650849 
102*2029.650849 102*2027.364069 
102*2027.364069 102*2025.077289 
102*2025.077289 102*2022.790509 
102*2022.790509 102*2020.503729 
102*2020.503729 102*2018.216950 
102*2018.216950 102*2015.930170 
102*2015.930170 102*2013.643390 
102*2013.643390 102*2011.356610 
102*2011.356610 102*2009.069830 
102*2009.069830 102*2006.783050 
102*2006.783050 102*2004.496271 
102*2004.496271 102*2002.209491 
102*2002.209491 102*1999.922711 
102*1999.922711 102*1997.635931 
102*1997.635931 102*1995.349151 
102*1995.349151 102*1993.062372 
102*1993.062372 102*1990.775592 
102*1990.775592 102*1988.488812 
102*1988.488812 102*1986.202032 
102*1986.202032 102*1983.915252 
102*1983.915252 102*1981.628473 
102*1981.628473 102*1979.341693 
102*1979.341693 102*1977.054913 
102*1977.054913 102*1974.768133 
102*1974.768133 102*1972.481353 
102*1972.481353 102*1970.194574 
102*1970.194574 102*1967.907794 
102*1967.907794 102*1965.621014 
102*1965.621014 102*1963.334234 
102*1963.334234 102*1961.047454 
102*1961.047454 102*1958.760675 
102*1958.760675 102*1956.473895 
102*2075.599665 102*2073.312885 
102*2073.312885 102*2071.026105 
102*2071.026105 102*2068.739325 
102*2068.739325 102*2066.452546 
102*2066.452546 102*2064.165766 
102*2064.165766 102*2061.878986 
102*2061.878986 102*2059.592206 
102*2059.592206 102*2057.305426 
102*2057.305426 102*2055.018647 
102*2055.018647 102*2052.731867 
102*2052.731867 102*2050.445087 
102*2050.445087 102*2048.158307 
102*2048.158307 102*2045.871527 
102*2045.871527 102*2043.584748 
102*2043.584748 102*2041.297968 
102*2041.297968 102*2039.011188 
102*2039.011188 102*2036.724408 
102*2036.724408 102*2034.437628 
102*2034.437628 102*2032.150849 
102*2032.150849 102*2029.864069 
102*2029.864069 102*2027.577289 
102*2027.577289 102*2025.290509 
102*2025.290509 102*2023.003729 
102*2023.003729 102*2020.716950 
102*2020.716950 102*2018.430170 
102*2018.430170 102*2016.143390 
102*2016.143390 102*2013.856610 
102*2013.856610 102*2011.569830 
102*2011.569830 102*2009.283050 
102*2009.283050 102*2006.996271 
102*2006.996271 102*2004.709491 
102*2004.709491 102*2002.422711 
102*2002.422711 102*2000.135931 
102*2000.135931 102*1997.849151 
102*1997.849151 102*1995.562372 
102*1995.562372 102*1993.275592 
102*1993.275592 102*1990.988812 
102*1990.988812 102*1988.702032 
102*1988.702032 102*1986.415252 
102*1986.415252 102*1984.128473 
102*1984.128473 102*1981.841693 
102*1981.841693 102*1979.554913 
102*1979.554913 102*1977.268133 
102*1977.268133 102*1974.981353 
102*1974.981353 102*1972.694574 
102*1972.694574 102*1970.407794 
102*1970.407794 102*1968.121014 
102*1968.121014 102*1965.834234 
102*1965.834234 102*1963.547454 
102*1963.547454 102*1961.260675 
102*1961.260675 102*1958.973895 
102*2075.599665 102*2073.312885 
102*2073.312885 102*2071.026105 
102*2071.026105 102*2068.739325 
102*2068.739325 102*2066.452546 
102*2066.452546 102*2064.165766 
102*2064.165766 102*2061.878986 
102*2061.878986 102*2059.592206 
102*2059.592206 102*2057.305426 
102*2057.305426 102*2055.018647 
102*2055.018647 102*2052.731867 
102*2052.731867 102*2050.445087 
102*2050.445087 102*2048.158307 
102*2048.158307 102*2045.871527 
102*2045.871527 102*2043.584748 
102*2043.584748 102*2041.297968 
102*2041.297968 102*2039.011188 
102*2039.011188 102*2036.724408 
102*2036.724408 102*2034.437628 
102*2034.437628 102*2032.150849 
102*2032.150849 102*2029.864069 
102*2029.864069 102*2027.577289 
102*2027.577289 102*2025.290509 
102*2025.290509 102*2023.003729 
102*2023.003729 102*2020.716950 
102*2020.716950 102*2018.430170 
102*2018.430170 102*2016.143390 
102*2016.143390 102*2013.856610 
102*2013.856610 102*2011.569830 
102*2011.569830 102*2009.283050 
102*2009.283050 102*2006.996271 
102*2006.996271 102*2004.709491 
102*2004.709491 102*2002.422711 
102*2002.422711 102*2000.135931 
102*2000.135931 102*1997.849151 
102*1997.849151 102*1995.562372 
102*1995.562372 102*1993.275592 
102*1993.275592 102*1990.988812 
102*1990.988812 102*1988.702032 
102*1988.702032 102*1986.415252 
102*1986.415252 102*1984.128473 
102*1984.128473 102*1981.841693 
102*1981.841693 102*1979.554913 
102*1979.554913 102*1977.268133 
102*1977.268133 102*1974.981353 
102*1974.981353 102*1972.694574 
102*1972.694574 102*1970.407794 
102*1970.407794 102*1968.121014 
102*1968.121014 102*1965.834234 
102*1965.834234 102*1963.547454 
102*1963.547454 102*1961.260675 
102*1961.260675 102*1958.973895 
102*2078.099665 102*2075.812885 
102*2075.812885 102*2073.526105 
102*2073.526105 102*2071.239325 
102*2071.239325 102*2068.952546 
102*2068.952546 102*2066.665766 
102*2066.665766 102*2064.378986 
102*2064.378986 102*2062.092206 
102*2062.092206 102*2059.805426 
102*2059.805426 102*2057.518647 
102*2057.518647 102*2055.231867 
102*2055.231867 102*2052.945087 
102*2052.945087 102*2050.658307 
102*2050.658307 102*2048.371527 
102*2048.371527 102*2046.084748 
102*2046.084748 102*2043.797968 
102*2043.797968 102*2041.511188 
102*2041.511188 102*2039.224408 
102*2039.224408 102*2036.937628 
102*2036.937628 102*2034.650849 
102*2034.650849 102*2032.364069 
102*2032.364069 102*2030.077289 
102*2030.077289 102*2027.790509 
102*2027.790509 102*2025.503729 
102*2025.503729 102*2023.216950 
102*2023.216950 102*2020.930170 
102*2020.930170 102*2018.643390 
102*2018.643390 102*2016.356610 
102*2016.356610 102*2014.069830 
102*2014.069830 102*2011.783050 
102*2011.783050 102*2009.496271 
102*2009.496271 102*2007.209491 
102*2007.209491 102*2004.922711 
102*2004.922711 102*2002.635931 
102*2002.635931 102*2000.349151 
102*2000.349151 102*1998.062372 
102*1998.062372 102*1995.775592 
102*1995.775592 102*1993.488812 
102*1993.488812 102*1991.202032 
102*1991.202032 102*1988.915252 
102*1988.915252 102*1986.628473 
102*1986.628473 102*1984.341693 
102*1984.341693 102*1982.054913 
102*1982.054913 102*1979.768133 
102*1979.768133 102*1977.481353 
102*1977.481353 102*1975.194574 
102*1975.194574 102*1972.907794 
102*1972.907794 102*1970.621014 
102*1970.621014 102*1968.334234 
102*1968.334234 102*1966.047454 
102*1966.047454 102*1963.760675 
102*1963.760675 102*1961.473895 
102*2078.099665 102*2075.812885 
102*2075.812885 102*2073.526105 
102*2073.526105 102*2071.239325 
102*2071.239325 102*2068.952546 
102*2068.952546 102*2066.665766 
102*2066.665766 102*2064.378986 
102*2064.378986 102*2062.092206 
102*2062.092206 102*2059.805426 
102*2059.805426 102*2057.518647 
102*2057.518647 102*2055.231867 
102*2055.231867 102*2052.945087 
102*2052.945087 102*2050.658307 
102*2050.658307 102*2048.371527 
102*2048.371527 102*2046.084748 
102*2046.084748 102*2043.797968 
102*2043.797968 102*2041.511188 
102*2041.511188 102*2039.224408 
102*2039.224408 102*2036.937628 
102*2036.937628 102*2034.650849 
102*2034.650849 102*2032.364069 
102*2032.364069 102*2030.077289 
102*2030.077289 102*2027.790509 
102*2027.790509 102*2025.503729 
102*2025.503729 102*2023.216950 
102*2023.216950 102*2020.930170 
102*2020.930170 102*2018.643390 
102*2018.643390 102*2016.356610 
102*2016.356610 102*2014.069830 
102*2014.069830 102*2011.783050 
102*2011.783050 102*2009.496271 
102*2009.496271 102*2007.209491 
102*2007.209491 102*2004.922711 
102*2004.922711 102*2002.635931 
102*2002.635931 102*2000.349151 
102*2000.349151 102*1998.062372 
102*1998.062372 102*1995.775592 
102*1995.775592 102*1993.488812 
102*1993.488812 102*1991.202032 
102*1991.202032 102*1988.915252 
102*1988.915252 102*1986.628473 
102*1986.628473 102*1984.341693 
102*1984.341693 102*1982.054913 
102*1982.054913 102*1979.768133 
102*1979.768133 102*1977.481353 
102*1977.481353 102*1975.194574 
102*1975.194574 102*1972.907794 
102*1972.907794 102*1970.621014 
102*1970.621014 102*1968.334234 
102*1968.334234 102*1966.047454 
102*1966.047454 102*1963.760675 
102*1963.760675 102*1961.473895 
102*2080.599665 102*2078.312885 
102*2078.312885 102*2076.026105 
102*2076.026105 102*2073.739325 
102*2073.739325 102*2071.452546 
102*2071.452546 102*2069.165766 
102*2069.165766 102*2066.878986 
102*2066.878986 102*2064.592206 
102*2064.592206 102*2062.305426 
102*2062.305426 102*2060.018647 
102*2060.018647 102*2057.731867 
102*2057.731867 102*2055.445087 
102*2055.445087 102*2053.158307 
102*2053.158307 102*2050.871527 
102*2050.871527 102*2048.584748 
102*2048.584748 102*2046.297968 
102*2046.297968 102*2044.011188 
102*2044.011188 102*2041.724408 
102*2041.724408 102*2039.437628 
102*2039.437628 102*2037.150849 
102*2037.150849 102*2034.864069 
102*2034.864069 102*2032.577289 
102*2032.577289 102*2030.290509 
102*2030.290509 102*2028.003729 
102*2028.003729 102*2025.716950 
102*2025.716950 102*2023.430170 
102*2023.430170 102*2021.143390 
102*2021.143390 102*2018.856610 
102*2018.856610 102*2016.569830 
102*2016.569830 102*2014.283050 
102*2014.283050 102*2011.996271 
102*2011.996271 102*2009.709491 
102*2009.709491 102*2007.422711 
102*2007.422711 102*2005.135931 
102*2005.135931 102*2002.849151 
102*2002.849151 102*2000.562372 
102*2000.562372 102*1998.275592 
102*1998.275592 102*1995.988812 
102*1995.988812 102*1993.702032 
102*1993.702032 102*1991.415252 
102*1991.415252 102*1989.128473 
102*1989.128473 102*1986.841693 
102*1986.841693 102*1984.554913 
102*1984.554913 102*1982.268133 
102*1982.268133 102*1979.981353 
102*1979.981353 102*1977.694574 
102*1977.694574 102*1975.407794 
102*1975.407794 102*1973.121014 
102*1973.121014 102*1970.834234 
102*1970.834234 102*1968.547454 
102*1968.547454 102*1966.260675 
102*1966.260675 102*1963.973895 
102*2080.599665 102*2078.312885 
102*2078.312885 102*2076.026105 
102*2076.026105 102*2073.739325 
102*2073.739325 102*2071.452546 
102*2071.452546 102*2069.165766 
102*2069.165766 102*2066.878986 
102*2066.878986 102*2064.592206 
102*2064.592206 102*2062.305426 
102*2062.305426 102*2060.018647 
102*2060.018647 102*2057.731867 
102*2057.731867 102*2055.445087 
102*2055.445087 102*2053.158307 
102*2053.158307 102*2050.871527 
102*2050.871527 102*2048.584748 
102*2048.584748 102*2046.297968 
102*2046.297968 102*2044.011188 
102*2044.011188 102*2041.724408 
102*2041.724408 102*2039.437628 
102*2039.437628 102*2037.150849 
102*2037.150849 102*2034.864069 
102*2034.864069 102*2032.577289 
102*2032.577289 102*2030.290509 
102*2030.290509 102*2028.003729 
102*2028.003729 102*2025.716950 
102*2025.716950 102*2023.430170 
102*2023.430170 102*2021.143390 
102*2021.143390 102*2018.856610 
102*2018.856610 102*2016.569830 
102*2016.569830 102*2014.283050 
102*2014.283050 102*2011.996271 
102*2011.996271 102*2009.709491 
102*2009.709491 102*2007.422711 
102*2007.422711 102*2005.135931 
102*2005.135931 102*2002.849151 
102*2002.849151 102*2000.562372 
102*2000.562372 102*1998.275592 
102*1998.275592 102*1995.988812 
102*1995.988812 102*1993.702032 
102*1993.702032 102*1991.415252 
102*1991.415252 102*1989.128473 
102*1989.128473 102*1986.841693 
102*1986.841693 102*1984.554913 
102*1984.554913 102*1982.268133 
102*1982.268133 102*1979.981353 
102*1979.981353 102*1977.694574 
102*1977.694574 102*1975.407794 
102*1975.407794 102*1973.121014 
102*1973.121014 102*1970.834234 
102*1970.834234 102*1968.547454 
102*1968.547454 102*1966.260675 
102*1966.260675 102*1963.973895 
102*2083.099665 102*2080.812885 
102*2080.812885 102*2078.526105 
102*2078.526105 102*2076.239325 
102*2076.239325 102*2073.952546 
102*2073.952546 102*2071.665766 
102*2071.665766 102*2069.378986 
102*2069.378986 102*2067.092206 
102*2067.092206 102*2064.805426 
102*2064.805426 102*2062.518647 
102*2062.518647 102*2060.231867 
102*2060.231867 102*2057.945087 
102*2057.945087 102*2055.658307 
102*2055.658307 102*2053.371527 
102*2053.371527 102*2051.084748 
102*2051.084748 102*2048.797968 
102*2048.797968 102*2046.511188 
102*2046.511188 102*2044.224408 
102*2044.224408 102*2041.937628 
102*2041.937628 102*2039.650849 
102*2039.650849 102*2037.364069 
102*2037.364069 102*2035.077289 
102*2035.077289 102*2032.790509 
102*2032.790509 102*2030.503729 
102*2030.503729 102*2028.216950 
102*2028.216950 102*2025.930170 
102*2025.930170 102*2023.643390 
102*2023.643390 102*2021.356610 
102*2021.356610 102*2019.069830 
102*2019.069830 102*2016.783050 
102*2016.783050 102*2014.496271 
102*2014.496271 102*2012.209491 
102*2012.209491 102*2009.922711 
102*2009.922711 102*2007.635931 
102*2007.635931 102*2005.349151 
102*2005.349151 102*2003.062372 
102*2003.062372 102*2000.775592 
102*2000.775592 102*1998.488812 
102*1998.488812 102*1996.202032 
102*1996.202032 102*1993.915252 
102*1993.915252 102*1991.628473 
102*1991.628473 102*1989.341693 