ZCORN
102*2000.925025 102*2000.890118 
102*2000.890118 102*2000.855211 
102*2000.855211 102*2000.820305 
102*2000.820305 102*2000.785398 
102*2000.785398 102*2000.750492 
102*2000.750492 102*2000.715585 
102*2000.715585 102*2000.680678 
102*2000.680678 102*2000.645772 
102*2000.645772 102*2000.610865 
102*2000.610865 102*2000.575959 
102*2000.575959 102*2000.541052 
102*2000.541052 102*2000.506146 
102*2000.506146 102*2000.471239 
102*2000.471239 102*2000.436332 
102*2000.436332 102*2000.401426 
102*2000.401426 102*2000.366519 
102*2000.366519 102*2000.331613 
102*2000.331613 102*2000.296706 
102*2000.296706 102*2000.261799 
102*2000.261799 102*2000.226893 
102*2000.226893 102*2000.191986 
102*2000.191986 102*2000.157080 
102*2000.157080 102*2000.122173 
102*2000.122173 102*2000.087266 
102*2000.087266 102*2000.052360 
102*2000.052360 102*2000.017453 
102*2000.017453 102*1999.982547 
102*1999.982547 102*1999.947640 
102*1999.947640 102*1999.912734 
102*1999.912734 102*1999.877827 
102*1999.877827 102*1999.842920 
102*1999.842920 102*1999.808014 
102*1999.808014 102*1999.773107 
102*1999.773107 102*1999.738201 
102*1999.738201 102*1999.703294 
102*1999.703294 102*1999.668387 
102*1999.668387 102*1999.633481 
102*1999.633481 102*1999.598574 
102*1999.598574 102*1999.563668 
102*1999.563668 102*1999.528761 
102*1999.528761 102*1999.493854 
102*1999.493854 102*1999.458948 
102*1999.458948 102*1999.424041 
102*1999.424041 102*1999.389135 
102*1999.389135 102*1999.354228 
102*1999.354228 102*1999.319322 
102*1999.319322 102*1999.284415 
102*1999.284415 102*1999.249508 
102*1999.249508 102*1999.214602 
102*1999.214602 102*1999.179695 
102*1999.179695 102*1999.144789 
102*2003.425025 102*2003.390118 
102*2003.390118 102*2003.355211 
102*2003.355211 102*2003.320305 
102*2003.320305 102*2003.285398 
102*2003.285398 102*2003.250492 
102*2003.250492 102*2003.215585 
102*2003.215585 102*2003.180678 
102*2003.180678 102*2003.145772 
102*2003.145772 102*2003.110865 
102*2003.110865 102*2003.075959 
102*2003.075959 102*2003.041052 
102*2003.041052 102*2003.006146 
102*2003.006146 102*2002.971239 
102*2002.971239 102*2002.936332 
102*2002.936332 102*2002.901426 
102*2002.901426 102*2002.866519 
102*2002.866519 102*2002.831613 
102*2002.831613 102*2002.796706 
102*2002.796706 102*2002.761799 
102*2002.761799 102*2002.726893 
102*2002.726893 102*2002.691986 
102*2002.691986 102*2002.657080 
102*2002.657080 102*2002.622173 
102*2002.622173 102*2002.587266 
102*2002.587266 102*2002.552360 
102*2002.552360 102*2002.517453 
102*2002.517453 102*2002.482547 
102*2002.482547 102*2002.447640 
102*2002.447640 102*2002.412734 
102*2002.412734 102*2002.377827 
102*2002.377827 102*2002.342920 
102*2002.342920 102*2002.308014 
102*2002.308014 102*2002.273107 
102*2002.273107 102*2002.238201 
102*2002.238201 102*2002.203294 
102*2002.203294 102*2002.168387 
102*2002.168387 102*2002.133481 
102*2002.133481 102*2002.098574 
102*2002.098574 102*2002.063668 
102*2002.063668 102*2002.028761 
102*2002.028761 102*2001.993854 
102*2001.993854 102*2001.958948 
102*2001.958948 102*2001.924041 
102*2001.924041 102*2001.889135 
102*2001.889135 102*2001.854228 
102*2001.854228 102*2001.819322 
102*2001.819322 102*2001.784415 
102*2001.784415 102*2001.749508 
102*2001.749508 102*2001.714602 
102*2001.714602 102*2001.679695 
102*2001.679695 102*2001.644789 
102*2003.425025 102*2003.390118 
102*2003.390118 102*2003.355211 
102*2003.355211 102*2003.320305 
102*2003.320305 102*2003.285398 
102*2003.285398 102*2003.250492 
102*2003.250492 102*2003.215585 
102*2003.215585 102*2003.180678 
102*2003.180678 102*2003.145772 
102*2003.145772 102*2003.110865 
102*2003.110865 102*2003.075959 
102*2003.075959 102*2003.041052 
102*2003.041052 102*2003.006146 
102*2003.006146 102*2002.971239 
102*2002.971239 102*2002.936332 
102*2002.936332 102*2002.901426 
102*2002.901426 102*2002.866519 
102*2002.866519 102*2002.831613 
102*2002.831613 102*2002.796706 
102*2002.796706 102*2002.761799 
102*2002.761799 102*2002.726893 
102*2002.726893 102*2002.691986 
102*2002.691986 102*2002.657080 
102*2002.657080 102*2002.622173 
102*2002.622173 102*2002.587266 
102*2002.587266 102*2002.552360 
102*2002.552360 102*2002.517453 
102*2002.517453 102*2002.482547 
102*2002.482547 102*2002.447640 
102*2002.447640 102*2002.412734 
102*2002.412734 102*2002.377827 
102*2002.377827 102*2002.342920 
102*2002.342920 102*2002.308014 
102*2002.308014 102*2002.273107 
102*2002.273107 102*2002.238201 
102*2002.238201 102*2002.203294 
102*2002.203294 102*2002.168387 
102*2002.168387 102*2002.133481 
102*2002.133481 102*2002.098574 
102*2002.098574 102*2002.063668 
102*2002.063668 102*2002.028761 
102*2002.028761 102*2001.993854 
102*2001.993854 102*2001.958948 
102*2001.958948 102*2001.924041 
102*2001.924041 102*2001.889135 
102*2001.889135 102*2001.854228 
102*2001.854228 102*2001.819322 
102*2001.819322 102*2001.784415 
102*2001.784415 102*2001.749508 
102*2001.749508 102*2001.714602 
102*2001.714602 102*2001.679695 
102*2001.679695 102*2001.644789 
102*2005.925025 102*2005.890118 
102*2005.890118 102*2005.855211 
102*2005.855211 102*2005.820305 
102*2005.820305 102*2005.785398 
102*2005.785398 102*2005.750492 
102*2005.750492 102*2005.715585 
102*2005.715585 102*2005.680678 
102*2005.680678 102*2005.645772 
102*2005.645772 102*2005.610865 
102*2005.610865 102*2005.575959 
102*2005.575959 102*2005.541052 
102*2005.541052 102*2005.506146 
102*2005.506146 102*2005.471239 
102*2005.471239 102*2005.436332 
102*2005.436332 102*2005.401426 
102*2005.401426 102*2005.366519 
102*2005.366519 102*2005.331613 
102*2005.331613 102*2005.296706 
102*2005.296706 102*2005.261799 
102*2005.261799 102*2005.226893 
102*2005.226893 102*2005.191986 
102*2005.191986 102*2005.157080 
102*2005.157080 102*2005.122173 
102*2005.122173 102*2005.087266 
102*2005.087266 102*2005.052360 
102*2005.052360 102*2005.017453 
102*2005.017453 102*2004.982547 
102*2004.982547 102*2004.947640 
102*2004.947640 102*2004.912734 
102*2004.912734 102*2004.877827 
102*2004.877827 102*2004.842920 
102*2004.842920 102*2004.808014 
102*2004.808014 102*2004.773107 
102*2004.773107 102*2004.738201 
102*2004.738201 102*2004.703294 
102*2004.703294 102*2004.668387 
102*2004.668387 102*2004.633481 
102*2004.633481 102*2004.598574 
102*2004.598574 102*2004.563668 
102*2004.563668 102*2004.528761 
102*2004.528761 102*2004.493854 
102*2004.493854 102*2004.458948 
102*2004.458948 102*2004.424041 
102*2004.424041 102*2004.389135 
102*2004.389135 102*2004.354228 
102*2004.354228 102*2004.319322 
102*2004.319322 102*2004.284415 
102*2004.284415 102*2004.249508 
102*2004.249508 102*2004.214602 
102*2004.214602 102*2004.179695 
102*2004.179695 102*2004.144789 
102*2005.925025 102*2005.890118 
102*2005.890118 102*2005.855211 
102*2005.855211 102*2005.820305 
102*2005.820305 102*2005.785398 
102*2005.785398 102*2005.750492 
102*2005.750492 102*2005.715585 
102*2005.715585 102*2005.680678 
102*2005.680678 102*2005.645772 
102*2005.645772 102*2005.610865 
102*2005.610865 102*2005.575959 
102*2005.575959 102*2005.541052 
102*2005.541052 102*2005.506146 
102*2005.506146 102*2005.471239 
102*2005.471239 102*2005.436332 
102*2005.436332 102*2005.401426 
102*2005.401426 102*2005.366519 
102*2005.366519 102*2005.331613 
102*2005.331613 102*2005.296706 
102*2005.296706 102*2005.261799 
102*2005.261799 102*2005.226893 
102*2005.226893 102*2005.191986 
102*2005.191986 102*2005.157080 
102*2005.157080 102*2005.122173 
102*2005.122173 102*2005.087266 
102*2005.087266 102*2005.052360 
102*2005.052360 102*2005.017453 
102*2005.017453 102*2004.982547 
102*2004.982547 102*2004.947640 
102*2004.947640 102*2004.912734 
102*2004.912734 102*2004.877827 
102*2004.877827 102*2004.842920 
102*2004.842920 102*2004.808014 
102*2004.808014 102*2004.773107 
102*2004.773107 102*2004.738201 
102*2004.738201 102*2004.703294 
102*2004.703294 102*2004.668387 
102*2004.668387 102*2004.633481 
102*2004.633481 102*2004.598574 
102*2004.598574 102*2004.563668 
102*2004.563668 102*2004.528761 
102*2004.528761 102*2004.493854 
102*2004.493854 102*2004.458948 
102*2004.458948 102*2004.424041 
102*2004.424041 102*2004.389135 
102*2004.389135 102*2004.354228 
102*2004.354228 102*2004.319322 
102*2004.319322 102*2004.284415 
102*2004.284415 102*2004.249508 
102*2004.249508 102*2004.214602 
102*2004.214602 102*2004.179695 
102*2004.179695 102*2004.144789 
102*2008.425025 102*2008.390118 
102*2008.390118 102*2008.355211 
102*2008.355211 102*2008.320305 
102*2008.320305 102*2008.285398 
102*2008.285398 102*2008.250492 
102*2008.250492 102*2008.215585 
102*2008.215585 102*2008.180678 
102*2008.180678 102*2008.145772 
102*2008.145772 102*2008.110865 
102*2008.110865 102*2008.075959 
102*2008.075959 102*2008.041052 
102*2008.041052 102*2008.006146 
102*2008.006146 102*2007.971239 
102*2007.971239 102*2007.936332 
102*2007.936332 102*2007.901426 
102*2007.901426 102*2007.866519 
102*2007.866519 102*2007.831613 
102*2007.831613 102*2007.796706 
102*2007.796706 102*2007.761799 
102*2007.761799 102*2007.726893 
102*2007.726893 102*2007.691986 
102*2007.691986 102*2007.657080 
102*2007.657080 102*2007.622173 
102*2007.622173 102*2007.587266 
102*2007.587266 102*2007.552360 
102*2007.552360 102*2007.517453 
102*2007.517453 102*2007.482547 
102*2007.482547 102*2007.447640 
102*2007.447640 102*2007.412734 
102*2007.412734 102*2007.377827 
102*2007.377827 102*2007.342920 
102*2007.342920 102*2007.308014 
102*2007.308014 102*2007.273107 
102*2007.273107 102*2007.238201 
102*2007.238201 102*2007.203294 
102*2007.203294 102*2007.168387 
102*2007.168387 102*2007.133481 
102*2007.133481 102*2007.098574 
102*2007.098574 102*2007.063668 
102*2007.063668 102*2007.028761 
102*2007.028761 102*2006.993854 
102*2006.993854 102*2006.958948 
102*2006.958948 102*2006.924041 
102*2006.924041 102*2006.889135 
102*2006.889135 102*2006.854228 
102*2006.854228 102*2006.819322 
102*2006.819322 102*2006.784415 
102*2006.784415 102*2006.749508 
102*2006.749508 102*2006.714602 
102*2006.714602 102*2006.679695 
102*2006.679695 102*2006.644789 
102*2008.425025 102*2008.390118 
102*2008.390118 102*2008.355211 
102*2008.355211 102*2008.320305 
102*2008.320305 102*2008.285398 
102*2008.285398 102*2008.250492 
102*2008.250492 102*2008.215585 
102*2008.215585 102*2008.180678 
102*2008.180678 102*2008.145772 
102*2008.145772 102*2008.110865 
102*2008.110865 102*2008.075959 
102*2008.075959 102*2008.041052 
102*2008.041052 102*2008.006146 
102*2008.006146 102*2007.971239 
102*2007.971239 102*2007.936332 
102*2007.936332 102*2007.901426 
102*2007.901426 102*2007.866519 
102*2007.866519 102*2007.831613 
102*2007.831613 102*2007.796706 
102*2007.796706 102*2007.761799 
102*2007.761799 102*2007.726893 
102*2007.726893 102*2007.691986 
102*2007.691986 102*2007.657080 
102*2007.657080 102*2007.622173 
102*2007.622173 102*2007.587266 
102*2007.587266 102*2007.552360 
102*2007.552360 102*2007.517453 
102*2007.517453 102*2007.482547 
102*2007.482547 102*2007.447640 
102*2007.447640 102*2007.412734 
102*2007.412734 102*2007.377827 
102*2007.377827 102*2007.342920 
102*2007.342920 102*2007.308014 
102*2007.308014 102*2007.273107 
102*2007.273107 102*2007.238201 
102*2007.238201 102*2007.203294 
102*2007.203294 102*2007.168387 
102*2007.168387 102*2007.133481 
102*2007.133481 102*2007.098574 
102*2007.098574 102*2007.063668 
102*2007.063668 102*2007.028761 
102*2007.028761 102*2006.993854 
102*2006.993854 102*2006.958948 
102*2006.958948 102*2006.924041 
102*2006.924041 102*2006.889135 
102*2006.889135 102*2006.854228 
102*2006.854228 102*2006.819322 
102*2006.819322 102*2006.784415 
102*2006.784415 102*2006.749508 
102*2006.749508 102*2006.714602 
102*2006.714602 102*2006.679695 
102*2006.679695 102*2006.644789 
102*2010.925025 102*2010.890118 
102*2010.890118 102*2010.855211 
102*2010.855211 102*2010.820305 
102*2010.820305 102*2010.785398 
102*2010.785398 102*2010.750492 
102*2010.750492 102*2010.715585 
102*2010.715585 102*2010.680678 
102*2010.680678 102*2010.645772 
102*2010.645772 102*2010.610865 
102*2010.610865 102*2010.575959 
102*2010.575959 102*2010.541052 
102*2010.541052 102*2010.506146 
102*2010.506146 102*2010.471239 
102*2010.471239 102*2010.436332 
102*2010.436332 102*2010.401426 
102*2010.401426 102*2010.366519 
102*2010.366519 102*2010.331613 
102*2010.331613 102*2010.296706 
102*2010.296706 102*2010.261799 
102*2010.261799 102*2010.226893 
102*2010.226893 102*2010.191986 
102*2010.191986 102*2010.157080 
102*2010.157080 102*2010.122173 
102*2010.122173 102*2010.087266 
102*2010.087266 102*2010.052360 
102*2010.052360 102*2010.017453 
102*2010.017453 102*2009.982547 
102*2009.982547 102*2009.947640 
102*2009.947640 102*2009.912734 
102*2009.912734 102*2009.877827 
102*2009.877827 102*2009.842920 
102*2009.842920 102*2009.808014 
102*2009.808014 102*2009.773107 
102*2009.773107 102*2009.738201 
102*2009.738201 102*2009.703294 
102*2009.703294 102*2009.668387 
102*2009.668387 102*2009.633481 
102*2009.633481 102*2009.598574 
102*2009.598574 102*2009.563668 
102*2009.563668 102*2009.528761 
102*2009.528761 102*2009.493854 
102*2009.493854 102*2009.458948 
102*2009.458948 102*2009.424041 
102*2009.424041 102*2009.389135 
102*2009.389135 102*2009.354228 
102*2009.354228 102*2009.319322 
102*2009.319322 102*2009.284415 
102*2009.284415 102*2009.249508 
102*2009.249508 102*2009.214602 
102*2009.214602 102*2009.179695 
102*2009.179695 102*2009.144789 
102*2010.925025 102*2010.890118 
102*2010.890118 102*2010.855211 
102*2010.855211 102*2010.820305 
102*2010.820305 102*2010.785398 
102*2010.785398 102*2010.750492 
102*2010.750492 102*2010.715585 
102*2010.715585 102*2010.680678 
102*2010.680678 102*2010.645772 
102*2010.645772 102*2010.610865 
102*2010.610865 102*2010.575959 
102*2010.575959 102*2010.541052 
102*2010.541052 102*2010.506146 
102*2010.506146 102*2010.471239 
102*2010.471239 102*2010.436332 
102*2010.436332 102*2010.401426 
102*2010.401426 102*2010.366519 
102*2010.366519 102*2010.331613 
102*2010.331613 102*2010.296706 
102*2010.296706 102*2010.261799 
102*2010.261799 102*2010.226893 
102*2010.226893 102*2010.191986 
102*2010.191986 102*2010.157080 
102*2010.157080 102*2010.122173 
102*2010.122173 102*2010.087266 
102*2010.087266 102*2010.052360 
102*2010.052360 102*2010.017453 
102*2010.017453 102*2009.982547 
102*2009.982547 102*2009.947640 
102*2009.947640 102*2009.912734 
102*2009.912734 102*2009.877827 
102*2009.877827 102*2009.842920 
102*2009.842920 102*2009.808014 
102*2009.808014 102*2009.773107 
102*2009.773107 102*2009.738201 
102*2009.738201 102*2009.703294 
102*2009.703294 102*2009.668387 
102*2009.668387 102*2009.633481 
102*2009.633481 102*2009.598574 
102*2009.598574 102*2009.563668 
102*2009.563668 102*2009.528761 
102*2009.528761 102*2009.493854 
102*2009.493854 102*2009.458948 
102*2009.458948 102*2009.424041 
102*2009.424041 102*2009.389135 
102*2009.389135 102*2009.354228 
102*2009.354228 102*2009.319322 
102*2009.319322 102*2009.284415 
102*2009.284415 102*2009.249508 
102*2009.249508 102*2009.214602 
102*2009.214602 102*2009.179695 
102*2009.179695 102*2009.144789 
102*2013.425025 102*2013.390118 
102*2013.390118 102*2013.355211 
102*2013.355211 102*2013.320305 
102*2013.320305 102*2013.285398 
102*2013.285398 102*2013.250492 
102*2013.250492 102*2013.215585 
102*2013.215585 102*2013.180678 
102*2013.180678 102*2013.145772 
102*2013.145772 102*2013.110865 
102*2013.110865 102*2013.075959 
102*2013.075959 102*2013.041052 
102*2013.041052 102*2013.006146 
102*2013.006146 102*2012.971239 
102*2012.971239 102*2012.936332 
102*2012.936332 102*2012.901426 
102*2012.901426 102*2012.866519 
102*2012.866519 102*2012.831613 
102*2012.831613 102*2012.796706 
102*2012.796706 102*2012.761799 
102*2012.761799 102*2012.726893 
102*2012.726893 102*2012.691986 
102*2012.691986 102*2012.657080 
102*2012.657080 102*2012.622173 
102*2012.622173 102*2012.587266 
102*2012.587266 102*2012.552360 
102*2012.552360 102*2012.517453 
102*2012.517453 102*2012.482547 
102*2012.482547 102*2012.447640 
102*2012.447640 102*2012.412734 
102*2012.412734 102*2012.377827 
102*2012.377827 102*2012.342920 
102*2012.342920 102*2012.308014 
102*2012.308014 102*2012.273107 
102*2012.273107 102*2012.238201 
102*2012.238201 102*2012.203294 
102*2012.203294 102*2012.168387 
102*2012.168387 102*2012.133481 
102*2012.133481 102*2012.098574 
102*2012.098574 102*2012.063668 
102*2012.063668 102*2012.028761 
102*2012.028761 102*2011.993854 
102*2011.993854 102*2011.958948 
102*2011.958948 102*2011.924041 
102*2011.924041 102*2011.889135 
102*2011.889135 102*2011.854228 
102*2011.854228 102*2011.819322 
102*2011.819322 102*2011.784415 
102*2011.784415 102*2011.749508 
102*2011.749508 102*2011.714602 
102*2011.714602 102*2011.679695 
102*2011.679695 102*2011.644789 
102*2013.425025 102*2013.390118 
102*2013.390118 102*2013.355211 
102*2013.355211 102*2013.320305 
102*2013.320305 102*2013.285398 
102*2013.285398 102*2013.250492 
102*2013.250492 102*2013.215585 
102*2013.215585 102*2013.180678 
102*2013.180678 102*2013.145772 
102*2013.145772 102*2013.110865 
102*2013.110865 102*2013.075959 
102*2013.075959 102*2013.041052 
102*2013.041052 102*2013.006146 
102*2013.006146 102*2012.971239 
102*2012.971239 102*2012.936332 
102*2012.936332 102*2012.901426 
102*2012.901426 102*2012.866519 
102*2012.866519 102*2012.831613 
102*2012.831613 102*2012.796706 
102*2012.796706 102*2012.761799 
102*2012.761799 102*2012.726893 
102*2012.726893 102*2012.691986 
102*2012.691986 102*2012.657080 
102*2012.657080 102*2012.622173 
102*2012.622173 102*2012.587266 
102*2012.587266 102*2012.552360 
102*2012.552360 102*2012.517453 
102*2012.517453 102*2012.482547 
102*2012.482547 102*2012.447640 
102*2012.447640 102*2012.412734 
102*2012.412734 102*2012.377827 
102*2012.377827 102*2012.342920 
102*2012.342920 102*2012.308014 
102*2012.308014 102*2012.273107 
102*2012.273107 102*2012.238201 
102*2012.238201 102*2012.203294 
102*2012.203294 102*2012.168387 
102*2012.168387 102*2012.133481 
102*2012.133481 102*2012.098574 
102*2012.098574 102*2012.063668 
102*2012.063668 102*2012.028761 
102*2012.028761 102*2011.993854 
102*2011.993854 102*2011.958948 
102*2011.958948 102*2011.924041 
102*2011.924041 102*2011.889135 
102*2011.889135 102*2011.854228 
102*2011.854228 102*2011.819322 
102*2011.819322 102*2011.784415 
102*2011.784415 102*2011.749508 
102*2011.749508 102*2011.714602 
102*2011.714602 102*2011.679695 
102*2011.679695 102*2011.644789 
102*2015.925025 102*2015.890118 
102*2015.890118 102*2015.855211 
102*2015.855211 102*2015.820305 
102*2015.820305 102*2015.785398 
102*2015.785398 102*2015.750492 
102*2015.750492 102*2015.715585 
102*2015.715585 102*2015.680678 
102*2015.680678 102*2015.645772 
102*2015.645772 102*2015.610865 
102*2015.610865 102*2015.575959 
102*2015.575959 102*2015.541052 
102*2015.541052 102*2015.506146 
102*2015.506146 102*2015.471239 
102*2015.471239 102*2015.436332 
102*2015.436332 102*2015.401426 
102*2015.401426 102*2015.366519 
102*2015.366519 102*2015.331613 
102*2015.331613 102*2015.296706 
102*2015.296706 102*2015.261799 
102*2015.261799 102*2015.226893 
102*2015.226893 102*2015.191986 
102*2015.191986 102*2015.157080 
102*2015.157080 102*2015.122173 
102*2015.122173 102*2015.087266 
102*2015.087266 102*2015.052360 
102*2015.052360 102*2015.017453 
102*2015.017453 102*2014.982547 
102*2014.982547 102*2014.947640 
102*2014.947640 102*2014.912734 
102*2014.912734 102*2014.877827 
102*2014.877827 102*2014.842920 
102*2014.842920 102*2014.808014 
102*2014.808014 102*2014.773107 
102*2014.773107 102*2014.738201 
102*2014.738201 102*2014.703294 
102*2014.703294 102*2014.668387 
102*2014.668387 102*2014.633481 
102*2014.633481 102*2014.598574 
102*2014.598574 102*2014.563668 
102*2014.563668 102*2014.528761 
102*2014.528761 102*2014.493854 
102*2014.493854 102*2014.458948 
102*2014.458948 102*2014.424041 
102*2014.424041 102*2014.389135 
102*2014.389135 102*2014.354228 
102*2014.354228 102*2014.319322 
102*2014.319322 102*2014.284415 
102*2014.284415 102*2014.249508 
102*2014.249508 102*2014.214602 
102*2014.214602 102*2014.179695 
102*2014.179695 102*2014.144789 
102*2015.925025 102*2015.890118 
102*2015.890118 102*2015.855211 
102*2015.855211 102*2015.820305 
102*2015.820305 102*2015.785398 
102*2015.785398 102*2015.750492 
102*2015.750492 102*2015.715585 
102*2015.715585 102*2015.680678 
102*2015.680678 102*2015.645772 
102*2015.645772 102*2015.610865 
102*2015.610865 102*2015.575959 
102*2015.575959 102*2015.541052 
102*2015.541052 102*2015.506146 
102*2015.506146 102*2015.471239 
102*2015.471239 102*2015.436332 
102*2015.436332 102*2015.401426 
102*2015.401426 102*2015.366519 
102*2015.366519 102*2015.331613 
102*2015.331613 102*2015.296706 
102*2015.296706 102*2015.261799 
102*2015.261799 102*2015.226893 
102*2015.226893 102*2015.191986 
102*2015.191986 102*2015.157080 
102*2015.157080 102*2015.122173 
102*2015.122173 102*2015.087266 
102*2015.087266 102*2015.052360 
102*2015.052360 102*2015.017453 
102*2015.017453 102*2014.982547 
102*2014.982547 102*2014.947640 
102*2014.947640 102*2014.912734 
102*2014.912734 102*2014.877827 
102*2014.877827 102*2014.842920 
102*2014.842920 102*2014.808014 
102*2014.808014 102*2014.773107 
102*2014.773107 102*2014.738201 
102*2014.738201 102*2014.703294 
102*2014.703294 102*2014.668387 
102*2014.668387 102*2014.633481 
102*2014.633481 102*2014.598574 
102*2014.598574 102*2014.563668 
102*2014.563668 102*2014.528761 
102*2014.528761 102*2014.493854 
102*2014.493854 102*2014.458948 
102*2014.458948 102*2014.424041 
102*2014.424041 102*2014.389135 
102*2014.389135 102*2014.354228 
102*2014.354228 102*2014.319322 
102*2014.319322 102*2014.284415 
102*2014.284415 102*2014.249508 
102*2014.249508 102*2014.214602 
102*2014.214602 102*2014.179695 
102*2014.179695 102*2014.144789 
102*2018.425025 102*2018.390118 
102*2018.390118 102*2018.355211 
102*2018.355211 102*2018.320305 
102*2018.320305 102*2018.285398 
102*2018.285398 102*2018.250492 
102*2018.250492 102*2018.215585 
102*2018.215585 102*2018.180678 
102*2018.180678 102*2018.145772 
102*2018.145772 102*2018.110865 
102*2018.110865 102*2018.075959 
102*2018.075959 102*2018.041052 
102*2018.041052 102*2018.006146 
102*2018.006146 102*2017.971239 
102*2017.971239 102*2017.936332 
102*2017.936332 102*2017.901426 
102*2017.901426 102*2017.866519 
102*2017.866519 102*2017.831613 
102*2017.831613 102*2017.796706 
102*2017.796706 102*2017.761799 
102*2017.761799 102*2017.726893 
102*2017.726893 102*2017.691986 
102*2017.691986 102*2017.657080 
102*2017.657080 102*2017.622173 
102*2017.622173 102*2017.587266 
102*2017.587266 102*2017.552360 
102*2017.552360 102*2017.517453 
102*2017.517453 102*2017.482547 
102*2017.482547 102*2017.447640 
102*2017.447640 102*2017.412734 
102*2017.412734 102*2017.377827 
102*2017.377827 102*2017.342920 
102*2017.342920 102*2017.308014 
102*2017.308014 102*2017.273107 
102*2017.273107 102*2017.238201 
102*2017.238201 102*2017.203294 
102*2017.203294 102*2017.168387 
102*2017.168387 102*2017.133481 
102*2017.133481 102*2017.098574 
102*2017.098574 102*2017.063668 
102*2017.063668 102*2017.028761 
102*2017.028761 102*2016.993854 
102*2016.993854 102*2016.958948 
102*2016.958948 102*2016.924041 
102*2016.924041 102*2016.889135 
102*2016.889135 102*2016.854228 
102*2016.854228 102*2016.819322 
102*2016.819322 102*2016.784415 
102*2016.784415 102*2016.749508 
102*2016.749508 102*2016.714602 
102*2016.714602 102*2016.679695 
102*2016.679695 102*2016.644789 
102*2018.425025 102*2018.390118 
102*2018.390118 102*2018.355211 
102*2018.355211 102*2018.320305 
102*2018.320305 102*2018.285398 
102*2018.285398 102*2018.250492 
102*2018.250492 102*2018.215585 
102*2018.215585 102*2018.180678 
102*2018.180678 102*2018.145772 
102*2018.145772 102*2018.110865 
102*2018.110865 102*2018.075959 
102*2018.075959 102*2018.041052 
102*2018.041052 102*2018.006146 
102*2018.006146 102*2017.971239 
102*2017.971239 102*2017.936332 
102*2017.936332 102*2017.901426 
102*2017.901426 102*2017.866519 
102*2017.866519 102*2017.831613 
102*2017.831613 102*2017.796706 
102*2017.796706 102*2017.761799 
102*2017.761799 102*2017.726893 
102*2017.726893 102*2017.691986 
102*2017.691986 102*2017.657080 
102*2017.657080 102*2017.622173 
102*2017.622173 102*2017.587266 
102*2017.587266 102*2017.552360 
102*2017.552360 102*2017.517453 
102*2017.517453 102*2017.482547 
102*2017.482547 102*2017.447640 
102*2017.447640 102*2017.412734 
102*2017.412734 102*2017.377827 
102*2017.377827 102*2017.342920 
102*2017.342920 102*2017.308014 
102*2017.308014 102*2017.273107 
102*2017.273107 102*2017.238201 
102*2017.238201 102*2017.203294 
102*2017.203294 102*2017.168387 
102*2017.168387 102*2017.133481 
102*2017.133481 102*2017.098574 
102*2017.098574 102*2017.063668 
102*2017.063668 102*2017.028761 
102*2017.028761 102*2016.993854 
102*2016.993854 102*2016.958948 
102*2016.958948 102*2016.924041 
102*2016.924041 102*2016.889135 
102*2016.889135 102*2016.854228 
102*2016.854228 102*2016.819322 
102*2016.819322 102*2016.784415 
102*2016.784415 102*2016.749508 
102*2016.749508 102*2016.714602 
102*2016.714602 102*2016.679695 
102*2016.679695 102*2016.644789 
102*2020.925025 102*2020.890118 
102*2020.890118 102*2020.855211 
102*2020.855211 102*2020.820305 
102*2020.820305 102*2020.785398 
102*2020.785398 102*2020.750492 
102*2020.750492 102*2020.715585 
102*2020.715585 102*2020.680678 
102*2020.680678 102*2020.645772 
102*2020.645772 102*2020.610865 
102*2020.610865 102*2020.575959 
102*2020.575959 102*2020.541052 
102*2020.541052 102*2020.506146 
102*2020.506146 102*2020.471239 
102*2020.471239 102*2020.436332 
102*2020.436332 102*2020.401426 
102*2020.401426 102*2020.366519 
102*2020.366519 102*2020.331613 
102*2020.331613 102*2020.296706 
102*2020.296706 102*2020.261799 
102*2020.261799 102*2020.226893 
102*2020.226893 102*2020.191986 
102*2020.191986 102*2020.157080 
102*2020.157080 102*2020.122173 
102*2020.122173 102*2020.087266 
102*2020.087266 102*2020.052360 
102*2020.052360 102*2020.017453 
102*2020.017453 102*2019.982547 
102*2019.982547 102*2019.947640 
102*2019.947640 102*2019.912734 
102*2019.912734 102*2019.877827 
102*2019.877827 102*2019.842920 
102*2019.842920 102*2019.808014 
102*2019.808014 102*2019.773107 
102*2019.773107 102*2019.738201 
102*2019.738201 102*2019.703294 
102*2019.703294 102*2019.668387 
102*2019.668387 102*2019.633481 
102*2019.633481 102*2019.598574 
102*2019.598574 102*2019.563668 
102*2019.563668 102*2019.528761 
102*2019.528761 102*2019.493854 
102*2019.493854 102*2019.458948 
102*2019.458948 102*2019.424041 
102*2019.424041 102*2019.389135 
102*2019.389135 102*2019.354228 
102*2019.354228 102*2019.319322 
102*2019.319322 102*2019.284415 
102*2019.284415 102*2019.249508 
102*2019.249508 102*2019.214602 
102*2019.214602 102*2019.179695 
102*2019.179695 102*2019.144789 
102*2020.925025 102*2020.890118 
102*2020.890118 102*2020.855211 
102*2020.855211 102*2020.820305 
102*2020.820305 102*2020.785398 
102*2020.785398 102*2020.750492 
102*2020.750492 102*2020.715585 
102*2020.715585 102*2020.680678 
102*2020.680678 102*2020.645772 
102*2020.645772 102*2020.610865 
102*2020.610865 102*2020.575959 
102*2020.575959 102*2020.541052 
102*2020.541052 102*2020.506146 
102*2020.506146 102*2020.471239 
102*2020.471239 102*2020.436332 
102*2020.436332 102*2020.401426 
102*2020.401426 102*2020.366519 
102*2020.366519 102*2020.331613 
102*2020.331613 102*2020.296706 
102*2020.296706 102*2020.261799 
102*2020.261799 102*2020.226893 
102*2020.226893 102*2020.191986 
102*2020.191986 102*2020.157080 
102*2020.157080 102*2020.122173 
102*2020.122173 102*2020.087266 
102*2020.087266 102*2020.052360 
102*2020.052360 102*2020.017453 
102*2020.017453 102*2019.982547 
102*2019.982547 102*2019.947640 
102*2019.947640 102*2019.912734 
102*2019.912734 102*2019.877827 
102*2019.877827 102*2019.842920 
102*2019.842920 102*2019.808014 
102*2019.808014 102*2019.773107 
102*2019.773107 102*2019.738201 
102*2019.738201 102*2019.703294 
102*2019.703294 102*2019.668387 
102*2019.668387 102*2019.633481 
102*2019.633481 102*2019.598574 
102*2019.598574 102*2019.563668 
102*2019.563668 102*2019.528761 
102*2019.528761 102*2019.493854 
102*2019.493854 102*2019.458948 
102*2019.458948 102*2019.424041 
102*2019.424041 102*2019.389135 
102*2019.389135 102*2019.354228 
102*2019.354228 102*2019.319322 
102*2019.319322 102*2019.284415 
102*2019.284415 102*2019.249508 
102*2019.249508 102*2019.214602 
102*2019.214602 102*2019.179695 
102*2019.179695 102*2019.144789 
102*2023.425025 102*2023.390118 
102*2023.390118 102*2023.355211 
102*2023.355211 102*2023.320305 
102*2023.320305 102*2023.285398 
102*2023.285398 102*2023.250492 
102*2023.250492 102*2023.215585 
102*2023.215585 102*2023.180678 
102*2023.180678 102*2023.145772 
102*2023.145772 102*2023.110865 
102*2023.110865 102*2023.075959 
102*2023.075959 102*2023.041052 
102*2023.041052 102*2023.006146 
102*2023.006146 102*2022.971239 
102*2022.971239 102*2022.936332 
102*2022.936332 102*2022.901426 
102*2022.901426 102*2022.866519 
102*2022.866519 102*2022.831613 
102*2022.831613 102*2022.796706 
102*2022.796706 102*2022.761799 
102*2022.761799 102*2022.726893 
102*2022.726893 102*2022.691986 
102*2022.691986 102*2022.657080 
102*2022.657080 102*2022.622173 
102*2022.622173 102*2022.587266 
102*2022.587266 102*2022.552360 
102*2022.552360 102*2022.517453 
102*2022.517453 102*2022.482547 
102*2022.482547 102*2022.447640 
102*2022.447640 102*2022.412734 
102*2022.412734 102*2022.377827 
102*2022.377827 102*2022.342920 
102*2022.342920 102*2022.308014 
102*2022.308014 102*2022.273107 
102*2022.273107 102*2022.238201 
102*2022.238201 102*2022.203294 
102*2022.203294 102*2022.168387 
102*2022.168387 102*2022.133481 
102*2022.133481 102*2022.098574 
102*2022.098574 102*2022.063668 
102*2022.063668 102*2022.028761 
102*2022.028761 102*2021.993854 