ZCORN
102*2090.224728 102*2086.820021 
102*2086.820021 102*2083.415314 
102*2083.415314 102*2080.010608 
102*2080.010608 102*2076.605901 
102*2076.605901 102*2073.201194 
102*2073.201194 102*2069.796488 
102*2069.796488 102*2066.391781 
102*2066.391781 102*2062.987074 
102*2062.987074 102*2059.582367 
102*2059.582367 102*2056.177661 
102*2056.177661 102*2052.772954 
102*2052.772954 102*2049.368247 
102*2049.368247 102*2045.963541 
102*2045.963541 102*2042.558834 
102*2042.558834 102*2039.154127 
102*2039.154127 102*2035.749420 
102*2035.749420 102*2032.344714 
102*2032.344714 102*2028.940007 
102*2028.940007 102*2025.535300 
102*2025.535300 102*2022.130594 
102*2022.130594 102*2018.725887 
102*2018.725887 102*2015.321180 
102*2015.321180 102*2011.916473 
102*2011.916473 102*2008.511767 
102*2008.511767 102*2005.107060 
102*2005.107060 102*2001.702353 
102*2001.702353 102*1998.297647 
102*1998.297647 102*1994.892940 
102*1994.892940 102*1991.488233 
102*1991.488233 102*1988.083527 
102*1988.083527 102*1984.678820 
102*1984.678820 102*1981.274113 
102*1981.274113 102*1977.869406 
102*1977.869406 102*1974.464700 
102*1974.464700 102*1971.059993 
102*1971.059993 102*1967.655286 
102*1967.655286 102*1964.250580 
102*1964.250580 102*1960.845873 
102*1960.845873 102*1957.441166 
102*1957.441166 102*1954.036459 
102*1954.036459 102*1950.631753 
102*1950.631753 102*1947.227046 
102*1947.227046 102*1943.822339 
102*1943.822339 102*1940.417633 
102*1940.417633 102*1937.012926 
102*1937.012926 102*1933.608219 
102*1933.608219 102*1930.203512 
102*1930.203512 102*1926.798806 
102*1926.798806 102*1923.394099 
102*1923.394099 102*1919.989392 
102*1919.989392 102*1916.584686 
102*2092.724728 102*2089.320021 
102*2089.320021 102*2085.915314 
102*2085.915314 102*2082.510608 
102*2082.510608 102*2079.105901 
102*2079.105901 102*2075.701194 
102*2075.701194 102*2072.296488 
102*2072.296488 102*2068.891781 
102*2068.891781 102*2065.487074 
102*2065.487074 102*2062.082367 
102*2062.082367 102*2058.677661 
102*2058.677661 102*2055.272954 
102*2055.272954 102*2051.868247 
102*2051.868247 102*2048.463541 
102*2048.463541 102*2045.058834 
102*2045.058834 102*2041.654127 
102*2041.654127 102*2038.249420 
102*2038.249420 102*2034.844714 
102*2034.844714 102*2031.440007 
102*2031.440007 102*2028.035300 
102*2028.035300 102*2024.630594 
102*2024.630594 102*2021.225887 
102*2021.225887 102*2017.821180 
102*2017.821180 102*2014.416473 
102*2014.416473 102*2011.011767 
102*2011.011767 102*2007.607060 
102*2007.607060 102*2004.202353 
102*2004.202353 102*2000.797647 
102*2000.797647 102*1997.392940 
102*1997.392940 102*1993.988233 
102*1993.988233 102*1990.583527 
102*1990.583527 102*1987.178820 
102*1987.178820 102*1983.774113 
102*1983.774113 102*1980.369406 
102*1980.369406 102*1976.964700 
102*1976.964700 102*1973.559993 
102*1973.559993 102*1970.155286 
102*1970.155286 102*1966.750580 
102*1966.750580 102*1963.345873 
102*1963.345873 102*1959.941166 
102*1959.941166 102*1956.536459 
102*1956.536459 102*1953.131753 
102*1953.131753 102*1949.727046 
102*1949.727046 102*1946.322339 
102*1946.322339 102*1942.917633 
102*1942.917633 102*1939.512926 
102*1939.512926 102*1936.108219 
102*1936.108219 102*1932.703512 
102*1932.703512 102*1929.298806 
102*1929.298806 102*1925.894099 
102*1925.894099 102*1922.489392 
102*1922.489392 102*1919.084686 
102*2092.724728 102*2089.320021 
102*2089.320021 102*2085.915314 
102*2085.915314 102*2082.510608 
102*2082.510608 102*2079.105901 
102*2079.105901 102*2075.701194 
102*2075.701194 102*2072.296488 
102*2072.296488 102*2068.891781 
102*2068.891781 102*2065.487074 
102*2065.487074 102*2062.082367 
102*2062.082367 102*2058.677661 
102*2058.677661 102*2055.272954 
102*2055.272954 102*2051.868247 
102*2051.868247 102*2048.463541 
102*2048.463541 102*2045.058834 
102*2045.058834 102*2041.654127 
102*2041.654127 102*2038.249420 
102*2038.249420 102*2034.844714 
102*2034.844714 102*2031.440007 
102*2031.440007 102*2028.035300 
102*2028.035300 102*2024.630594 
102*2024.630594 102*2021.225887 
102*2021.225887 102*2017.821180 
102*2017.821180 102*2014.416473 
102*2014.416473 102*2011.011767 
102*2011.011767 102*2007.607060 
102*2007.607060 102*2004.202353 
102*2004.202353 102*2000.797647 
102*2000.797647 102*1997.392940 
102*1997.392940 102*1993.988233 
102*1993.988233 102*1990.583527 
102*1990.583527 102*1987.178820 
102*1987.178820 102*1983.774113 
102*1983.774113 102*1980.369406 
102*1980.369406 102*1976.964700 
102*1976.964700 102*1973.559993 
102*1973.559993 102*1970.155286 
102*1970.155286 102*1966.750580 
102*1966.750580 102*1963.345873 
102*1963.345873 102*1959.941166 
102*1959.941166 102*1956.536459 
102*1956.536459 102*1953.131753 
102*1953.131753 102*1949.727046 
102*1949.727046 102*1946.322339 
102*1946.322339 102*1942.917633 
102*1942.917633 102*1939.512926 
102*1939.512926 102*1936.108219 
102*1936.108219 102*1932.703512 
102*1932.703512 102*1929.298806 
102*1929.298806 102*1925.894099 
102*1925.894099 102*1922.489392 
102*1922.489392 102*1919.084686 
102*2095.224728 102*2091.820021 
102*2091.820021 102*2088.415314 
102*2088.415314 102*2085.010608 
102*2085.010608 102*2081.605901 
102*2081.605901 102*2078.201194 
102*2078.201194 102*2074.796488 
102*2074.796488 102*2071.391781 
102*2071.391781 102*2067.987074 
102*2067.987074 102*2064.582367 
102*2064.582367 102*2061.177661 
102*2061.177661 102*2057.772954 
102*2057.772954 102*2054.368247 
102*2054.368247 102*2050.963541 
102*2050.963541 102*2047.558834 
102*2047.558834 102*2044.154127 
102*2044.154127 102*2040.749420 
102*2040.749420 102*2037.344714 
102*2037.344714 102*2033.940007 
102*2033.940007 102*2030.535300 
102*2030.535300 102*2027.130594 
102*2027.130594 102*2023.725887 
102*2023.725887 102*2020.321180 
102*2020.321180 102*2016.916473 
102*2016.916473 102*2013.511767 
102*2013.511767 102*2010.107060 
102*2010.107060 102*2006.702353 
102*2006.702353 102*2003.297647 
102*2003.297647 102*1999.892940 
102*1999.892940 102*1996.488233 
102*1996.488233 102*1993.083527 
102*1993.083527 102*1989.678820 
102*1989.678820 102*1986.274113 
102*1986.274113 102*1982.869406 
102*1982.869406 102*1979.464700 
102*1979.464700 102*1976.059993 
102*1976.059993 102*1972.655286 
102*1972.655286 102*1969.250580 
102*1969.250580 102*1965.845873 
102*1965.845873 102*1962.441166 
102*1962.441166 102*1959.036459 
102*1959.036459 102*1955.631753 
102*1955.631753 102*1952.227046 
102*1952.227046 102*1948.822339 
102*1948.822339 102*1945.417633 
102*1945.417633 102*1942.012926 
102*1942.012926 102*1938.608219 
102*1938.608219 102*1935.203512 
102*1935.203512 102*1931.798806 
102*1931.798806 102*1928.394099 
102*1928.394099 102*1924.989392 
102*1924.989392 102*1921.584686 
102*2095.224728 102*2091.820021 
102*2091.820021 102*2088.415314 
102*2088.415314 102*2085.010608 
102*2085.010608 102*2081.605901 
102*2081.605901 102*2078.201194 
102*2078.201194 102*2074.796488 
102*2074.796488 102*2071.391781 
102*2071.391781 102*2067.987074 
102*2067.987074 102*2064.582367 
102*2064.582367 102*2061.177661 
102*2061.177661 102*2057.772954 
102*2057.772954 102*2054.368247 
102*2054.368247 102*2050.963541 
102*2050.963541 102*2047.558834 
102*2047.558834 102*2044.154127 
102*2044.154127 102*2040.749420 
102*2040.749420 102*2037.344714 
102*2037.344714 102*2033.940007 
102*2033.940007 102*2030.535300 
102*2030.535300 102*2027.130594 
102*2027.130594 102*2023.725887 
102*2023.725887 102*2020.321180 
102*2020.321180 102*2016.916473 
102*2016.916473 102*2013.511767 
102*2013.511767 102*2010.107060 
102*2010.107060 102*2006.702353 
102*2006.702353 102*2003.297647 
102*2003.297647 102*1999.892940 
102*1999.892940 102*1996.488233 
102*1996.488233 102*1993.083527 
102*1993.083527 102*1989.678820 
102*1989.678820 102*1986.274113 
102*1986.274113 102*1982.869406 
102*1982.869406 102*1979.464700 
102*1979.464700 102*1976.059993 
102*1976.059993 102*1972.655286 
102*1972.655286 102*1969.250580 
102*1969.250580 102*1965.845873 
102*1965.845873 102*1962.441166 
102*1962.441166 102*1959.036459 
102*1959.036459 102*1955.631753 
102*1955.631753 102*1952.227046 
102*1952.227046 102*1948.822339 
102*1948.822339 102*1945.417633 
102*1945.417633 102*1942.012926 
102*1942.012926 102*1938.608219 
102*1938.608219 102*1935.203512 
102*1935.203512 102*1931.798806 
102*1931.798806 102*1928.394099 
102*1928.394099 102*1924.989392 
102*1924.989392 102*1921.584686 
102*2097.724728 102*2094.320021 
102*2094.320021 102*2090.915314 
102*2090.915314 102*2087.510608 
102*2087.510608 102*2084.105901 
102*2084.105901 102*2080.701194 
102*2080.701194 102*2077.296488 
102*2077.296488 102*2073.891781 
102*2073.891781 102*2070.487074 
102*2070.487074 102*2067.082367 
102*2067.082367 102*2063.677661 
102*2063.677661 102*2060.272954 
102*2060.272954 102*2056.868247 
102*2056.868247 102*2053.463541 
102*2053.463541 102*2050.058834 
102*2050.058834 102*2046.654127 
102*2046.654127 102*2043.249420 
102*2043.249420 102*2039.844714 
102*2039.844714 102*2036.440007 
102*2036.440007 102*2033.035300 
102*2033.035300 102*2029.630594 
102*2029.630594 102*2026.225887 
102*2026.225887 102*2022.821180 
102*2022.821180 102*2019.416473 
102*2019.416473 102*2016.011767 
102*2016.011767 102*2012.607060 
102*2012.607060 102*2009.202353 
102*2009.202353 102*2005.797647 
102*2005.797647 102*2002.392940 
102*2002.392940 102*1998.988233 
102*1998.988233 102*1995.583527 
102*1995.583527 102*1992.178820 
102*1992.178820 102*1988.774113 
102*1988.774113 102*1985.369406 
102*1985.369406 102*1981.964700 
102*1981.964700 102*1978.559993 
102*1978.559993 102*1975.155286 
102*1975.155286 102*1971.750580 
102*1971.750580 102*1968.345873 
102*1968.345873 102*1964.941166 
102*1964.941166 102*1961.536459 
102*1961.536459 102*1958.131753 
102*1958.131753 102*1954.727046 
102*1954.727046 102*1951.322339 
102*1951.322339 102*1947.917633 
102*1947.917633 102*1944.512926 
102*1944.512926 102*1941.108219 
102*1941.108219 102*1937.703512 
102*1937.703512 102*1934.298806 
102*1934.298806 102*1930.894099 
102*1930.894099 102*1927.489392 
102*1927.489392 102*1924.084686 
102*2097.724728 102*2094.320021 
102*2094.320021 102*2090.915314 
102*2090.915314 102*2087.510608 
102*2087.510608 102*2084.105901 
102*2084.105901 102*2080.701194 
102*2080.701194 102*2077.296488 
102*2077.296488 102*2073.891781 
102*2073.891781 102*2070.487074 
102*2070.487074 102*2067.082367 
102*2067.082367 102*2063.677661 
102*2063.677661 102*2060.272954 
102*2060.272954 102*2056.868247 
102*2056.868247 102*2053.463541 
102*2053.463541 102*2050.058834 
102*2050.058834 102*2046.654127 
102*2046.654127 102*2043.249420 
102*2043.249420 102*2039.844714 
102*2039.844714 102*2036.440007 
102*2036.440007 102*2033.035300 
102*2033.035300 102*2029.630594 
102*2029.630594 102*2026.225887 
102*2026.225887 102*2022.821180 
102*2022.821180 102*2019.416473 
102*2019.416473 102*2016.011767 
102*2016.011767 102*2012.607060 
102*2012.607060 102*2009.202353 
102*2009.202353 102*2005.797647 
102*2005.797647 102*2002.392940 
102*2002.392940 102*1998.988233 
102*1998.988233 102*1995.583527 
102*1995.583527 102*1992.178820 
102*1992.178820 102*1988.774113 
102*1988.774113 102*1985.369406 
102*1985.369406 102*1981.964700 
102*1981.964700 102*1978.559993 
102*1978.559993 102*1975.155286 
102*1975.155286 102*1971.750580 
102*1971.750580 102*1968.345873 
102*1968.345873 102*1964.941166 
102*1964.941166 102*1961.536459 
102*1961.536459 102*1958.131753 
102*1958.131753 102*1954.727046 
102*1954.727046 102*1951.322339 
102*1951.322339 102*1947.917633 
102*1947.917633 102*1944.512926 
102*1944.512926 102*1941.108219 
102*1941.108219 102*1937.703512 
102*1937.703512 102*1934.298806 
102*1934.298806 102*1930.894099 
102*1930.894099 102*1927.489392 
102*1927.489392 102*1924.084686 
102*2100.224728 102*2096.820021 
102*2096.820021 102*2093.415314 
102*2093.415314 102*2090.010608 
102*2090.010608 102*2086.605901 
102*2086.605901 102*2083.201194 
102*2083.201194 102*2079.796488 
102*2079.796488 102*2076.391781 
102*2076.391781 102*2072.987074 
102*2072.987074 102*2069.582367 
102*2069.582367 102*2066.177661 
102*2066.177661 102*2062.772954 
102*2062.772954 102*2059.368247 
102*2059.368247 102*2055.963541 
102*2055.963541 102*2052.558834 
102*2052.558834 102*2049.154127 
102*2049.154127 102*2045.749420 
102*2045.749420 102*2042.344714 
102*2042.344714 102*2038.940007 
102*2038.940007 102*2035.535300 
102*2035.535300 102*2032.130594 
102*2032.130594 102*2028.725887 
102*2028.725887 102*2025.321180 
102*2025.321180 102*2021.916473 
102*2021.916473 102*2018.511767 
102*2018.511767 102*2015.107060 
102*2015.107060 102*2011.702353 
102*2011.702353 102*2008.297647 
102*2008.297647 102*2004.892940 
102*2004.892940 102*2001.488233 
102*2001.488233 102*1998.083527 
102*1998.083527 102*1994.678820 
102*1994.678820 102*1991.274113 
102*1991.274113 102*1987.869406 
102*1987.869406 102*1984.464700 
102*1984.464700 102*1981.059993 
102*1981.059993 102*1977.655286 
102*1977.655286 102*1974.250580 
102*1974.250580 102*1970.845873 
102*1970.845873 102*1967.441166 
102*1967.441166 102*1964.036459 
102*1964.036459 102*1960.631753 
102*1960.631753 102*1957.227046 
102*1957.227046 102*1953.822339 
102*1953.822339 102*1950.417633 
102*1950.417633 102*1947.012926 
102*1947.012926 102*1943.608219 
102*1943.608219 102*1940.203512 
102*1940.203512 102*1936.798806 
102*1936.798806 102*1933.394099 
102*1933.394099 102*1929.989392 
102*1929.989392 102*1926.584686 
102*2100.224728 102*2096.820021 
102*2096.820021 102*2093.415314 
102*2093.415314 102*2090.010608 
102*2090.010608 102*2086.605901 
102*2086.605901 102*2083.201194 
102*2083.201194 102*2079.796488 
102*2079.796488 102*2076.391781 
102*2076.391781 102*2072.987074 
102*2072.987074 102*2069.582367 
102*2069.582367 102*2066.177661 
102*2066.177661 102*2062.772954 
102*2062.772954 102*2059.368247 
102*2059.368247 102*2055.963541 
102*2055.963541 102*2052.558834 
102*2052.558834 102*2049.154127 
102*2049.154127 102*2045.749420 
102*2045.749420 102*2042.344714 
102*2042.344714 102*2038.940007 
102*2038.940007 102*2035.535300 
102*2035.535300 102*2032.130594 
102*2032.130594 102*2028.725887 
102*2028.725887 102*2025.321180 
102*2025.321180 102*2021.916473 
102*2021.916473 102*2018.511767 
102*2018.511767 102*2015.107060 
102*2015.107060 102*2011.702353 
102*2011.702353 102*2008.297647 
102*2008.297647 102*2004.892940 
102*2004.892940 102*2001.488233 
102*2001.488233 102*1998.083527 
102*1998.083527 102*1994.678820 
102*1994.678820 102*1991.274113 
102*1991.274113 102*1987.869406 
102*1987.869406 102*1984.464700 
102*1984.464700 102*1981.059993 
102*1981.059993 102*1977.655286 
102*1977.655286 102*1974.250580 
102*1974.250580 102*1970.845873 
102*1970.845873 102*1967.441166 
102*1967.441166 102*1964.036459 
102*1964.036459 102*1960.631753 
102*1960.631753 102*1957.227046 
102*1957.227046 102*1953.822339 
102*1953.822339 102*1950.417633 
102*1950.417633 102*1947.012926 
102*1947.012926 102*1943.608219 
102*1943.608219 102*1940.203512 
102*1940.203512 102*1936.798806 
102*1936.798806 102*1933.394099 
102*1933.394099 102*1929.989392 
102*1929.989392 102*1926.584686 
102*2102.724728 102*2099.320021 
102*2099.320021 102*2095.915314 
102*2095.915314 102*2092.510608 
102*2092.510608 102*2089.105901 
102*2089.105901 102*2085.701194 
102*2085.701194 102*2082.296488 
102*2082.296488 102*2078.891781 
102*2078.891781 102*2075.487074 
102*2075.487074 102*2072.082367 
102*2072.082367 102*2068.677661 
102*2068.677661 102*2065.272954 
102*2065.272954 102*2061.868247 
102*2061.868247 102*2058.463541 
102*2058.463541 102*2055.058834 
102*2055.058834 102*2051.654127 
102*2051.654127 102*2048.249420 
102*2048.249420 102*2044.844714 
102*2044.844714 102*2041.440007 
102*2041.440007 102*2038.035300 
102*2038.035300 102*2034.630594 
102*2034.630594 102*2031.225887 
102*2031.225887 102*2027.821180 
102*2027.821180 102*2024.416473 
102*2024.416473 102*2021.011767 
102*2021.011767 102*2017.607060 
102*2017.607060 102*2014.202353 
102*2014.202353 102*2010.797647 
102*2010.797647 102*2007.392940 
102*2007.392940 102*2003.988233 
102*2003.988233 102*2000.583527 
102*2000.583527 102*1997.178820 
102*1997.178820 102*1993.774113 
102*1993.774113 102*1990.369406 
102*1990.369406 102*1986.964700 
102*1986.964700 102*1983.559993 
102*1983.559993 102*1980.155286 
102*1980.155286 102*1976.750580 
102*1976.750580 102*1973.345873 
102*1973.345873 102*1969.941166 
102*1969.941166 102*1966.536459 
102*1966.536459 102*1963.131753 
102*1963.131753 102*1959.727046 
102*1959.727046 102*1956.322339 
102*1956.322339 102*1952.917633 
102*1952.917633 102*1949.512926 
102*1949.512926 102*1946.108219 
102*1946.108219 102*1942.703512 
102*1942.703512 102*1939.298806 
102*1939.298806 102*1935.894099 
102*1935.894099 102*1932.489392 
102*1932.489392 102*1929.084686 
102*2102.724728 102*2099.320021 
102*2099.320021 102*2095.915314 
102*2095.915314 102*2092.510608 
102*2092.510608 102*2089.105901 
102*2089.105901 102*2085.701194 
102*2085.701194 102*2082.296488 
102*2082.296488 102*2078.891781 
102*2078.891781 102*2075.487074 
102*2075.487074 102*2072.082367 
102*2072.082367 102*2068.677661 
102*2068.677661 102*2065.272954 
102*2065.272954 102*2061.868247 
102*2061.868247 102*2058.463541 
102*2058.463541 102*2055.058834 
102*2055.058834 102*2051.654127 
102*2051.654127 102*2048.249420 
102*2048.249420 102*2044.844714 
102*2044.844714 102*2041.440007 
102*2041.440007 102*2038.035300 
102*2038.035300 102*2034.630594 
102*2034.630594 102*2031.225887 
102*2031.225887 102*2027.821180 
102*2027.821180 102*2024.416473 
102*2024.416473 102*2021.011767 
102*2021.011767 102*2017.607060 
102*2017.607060 102*2014.202353 
102*2014.202353 102*2010.797647 
102*2010.797647 102*2007.392940 
102*2007.392940 102*2003.988233 
102*2003.988233 102*2000.583527 
102*2000.583527 102*1997.178820 
102*1997.178820 102*1993.774113 
102*1993.774113 102*1990.369406 
102*1990.369406 102*1986.964700 
102*1986.964700 102*1983.559993 
102*1983.559993 102*1980.155286 
102*1980.155286 102*1976.750580 
102*1976.750580 102*1973.345873 
102*1973.345873 102*1969.941166 
102*1969.941166 102*1966.536459 
102*1966.536459 102*1963.131753 
102*1963.131753 102*1959.727046 
102*1959.727046 102*1956.322339 
102*1956.322339 102*1952.917633 
102*1952.917633 102*1949.512926 
102*1949.512926 102*1946.108219 
102*1946.108219 102*1942.703512 
102*1942.703512 102*1939.298806 
102*1939.298806 102*1935.894099 
102*1935.894099 102*1932.489392 
102*1932.489392 102*1929.084686 
102*2105.224728 102*2101.820021 
102*2101.820021 102*2098.415314 
102*2098.415314 102*2095.010608 
102*2095.010608 102*2091.605901 
102*2091.605901 102*2088.201194 
102*2088.201194 102*2084.796488 
102*2084.796488 102*2081.391781 
102*2081.391781 102*2077.987074 
102*2077.987074 102*2074.582367 
102*2074.582367 102*2071.177661 
102*2071.177661 102*2067.772954 
102*2067.772954 102*2064.368247 
102*2064.368247 102*2060.963541 
102*2060.963541 102*2057.558834 
102*2057.558834 102*2054.154127 
102*2054.154127 102*2050.749420 
102*2050.749420 102*2047.344714 
102*2047.344714 102*2043.940007 
102*2043.940007 102*2040.535300 
102*2040.535300 102*2037.130594 
102*2037.130594 102*2033.725887 
102*2033.725887 102*2030.321180 
102*2030.321180 102*2026.916473 
102*2026.916473 102*2023.511767 
102*2023.511767 102*2020.107060 
102*2020.107060 102*2016.702353 
102*2016.702353 102*2013.297647 
102*2013.297647 102*2009.892940 
102*2009.892940 102*2006.488233 
102*2006.488233 102*2003.083527 
102*2003.083527 102*1999.678820 
102*1999.678820 102*1996.274113 
102*1996.274113 102*1992.869406 
102*1992.869406 102*1989.464700 
102*1989.464700 102*1986.059993 
102*1986.059993 102*1982.655286 
102*1982.655286 102*1979.250580 
102*1979.250580 102*1975.845873 
102*1975.845873 102*1972.441166 
102*1972.441166 102*1969.036459 
102*1969.036459 102*1965.631753 
102*1965.631753 102*1962.227046 
102*1962.227046 102*1958.822339 
102*1958.822339 102*1955.417633 
102*1955.417633 102*1952.012926 
102*1952.012926 102*1948.608219 
102*1948.608219 102*1945.203512 
102*1945.203512 102*1941.798806 
102*1941.798806 102*1938.394099 
102*1938.394099 102*1934.989392 
102*1934.989392 102*1931.584686 
102*2105.224728 102*2101.820021 
102*2101.820021 102*2098.415314 
102*2098.415314 102*2095.010608 
102*2095.010608 102*2091.605901 
102*2091.605901 102*2088.201194 
102*2088.201194 102*2084.796488 
102*2084.796488 102*2081.391781 
102*2081.391781 102*2077.987074 
102*2077.987074 102*2074.582367 
102*2074.582367 102*2071.177661 
102*2071.177661 102*2067.772954 
102*2067.772954 102*2064.368247 
102*2064.368247 102*2060.963541 
102*2060.963541 102*2057.558834 
102*2057.558834 102*2054.154127 
102*2054.154127 102*2050.749420 
102*2050.749420 102*2047.344714 
102*2047.344714 102*2043.940007 
102*2043.940007 102*2040.535300 
102*2040.535300 102*2037.130594 
102*2037.130594 102*2033.725887 
102*2033.725887 102*2030.321180 
102*2030.321180 102*2026.916473 
102*2026.916473 102*2023.511767 
102*2023.511767 102*2020.107060 
102*2020.107060 102*2016.702353 
102*2016.702353 102*2013.297647 
102*2013.297647 102*2009.892940 
102*2009.892940 102*2006.488233 
102*2006.488233 102*2003.083527 
102*2003.083527 102*1999.678820 
102*1999.678820 102*1996.274113 
102*1996.274113 102*1992.869406 
102*1992.869406 102*1989.464700 
102*1989.464700 102*1986.059993 
102*1986.059993 102*1982.655286 
102*1982.655286 102*1979.250580 
102*1979.250580 102*1975.845873 
102*1975.845873 102*1972.441166 
102*1972.441166 102*1969.036459 
102*1969.036459 102*1965.631753 
102*1965.631753 102*1962.227046 
102*1962.227046 102*1958.822339 
102*1958.822339 102*1955.417633 
102*1955.417633 102*1952.012926 
102*1952.012926 102*1948.608219 
102*1948.608219 102*1945.203512 
102*1945.203512 102*1941.798806 
102*1941.798806 102*1938.394099 
102*1938.394099 102*1934.989392 
102*1934.989392 102*1931.584686 
102*2107.724728 102*2104.320021 
102*2104.320021 102*2100.915314 
102*2100.915314 102*2097.510608 
102*2097.510608 102*2094.105901 
102*2094.105901 102*2090.701194 
102*2090.701194 102*2087.296488 
102*2087.296488 102*2083.891781 
102*2083.891781 102*2080.487074 
102*2080.487074 102*2077.082367 
102*2077.082367 102*2073.677661 
102*2073.677661 102*2070.272954 
102*2070.272954 102*2066.868247 
102*2066.868247 102*2063.463541 
102*2063.463541 102*2060.058834 
102*2060.058834 102*2056.654127 
102*2056.654127 102*2053.249420 
102*2053.249420 102*2049.844714 
102*2049.844714 102*2046.440007 
102*2046.440007 102*2043.035300 
102*2043.035300 102*2039.630594 
102*2039.630594 102*2036.225887 
102*2036.225887 102*2032.821180 
102*2032.821180 102*2029.416473 
102*2029.416473 102*2026.011767 
102*2026.011767 102*2022.607060 
102*2022.607060 102*2019.202353 
102*2019.202353 102*2015.797647 
102*2015.797647 102*2012.392940 
102*2012.392940 102*2008.988233 
102*2008.988233 102*2005.583527 
102*2005.583527 102*2002.178820 
102*2002.178820 102*1998.774113 
102*1998.774113 102*1995.369406 
102*1995.369406 102*1991.964700 
102*1991.964700 102*1988.559993 
102*1988.559993 102*1985.155286 
102*1985.155286 102*1981.750580 
102*1981.750580 102*1978.345873 
102*1978.345873 102*1974.941166 
102*1974.941166 102*1971.536459 
102*1971.536459 102*1968.131753 
102*1968.131753 102*1964.727046 
102*1964.727046 102*1961.322339 
102*1961.322339 102*1957.917633 
102*1957.917633 102*1954.512926 
102*1954.512926 102*1951.108219 
102*1951.108219 102*1947.703512 
102*1947.703512 102*1944.298806 
102*1944.298806 102*1940.894099 
102*1940.894099 102*1937.489392 
102*1937.489392 102*1934.084686 
102*2107.724728 102*2104.320021 
102*2104.320021 102*2100.915314 
102*2100.915314 102*2097.510608 
102*2097.510608 102*2094.105901 
102*2094.105901 102*2090.701194 
102*2090.701194 102*2087.296488 
102*2087.296488 102*2083.891781 
102*2083.891781 102*2080.487074 
102*2080.487074 102*2077.082367 
102*2077.082367 102*2073.677661 
102*2073.677661 102*2070.272954 
102*2070.272954 102*2066.868247 
102*2066.868247 102*2063.463541 
102*2063.463541 102*2060.058834 
102*2060.058834 102*2056.654127 
102*2056.654127 102*2053.249420 
102*2053.249420 102*2049.844714 
102*2049.844714 102*2046.440007 
102*2046.440007 102*2043.035300 
102*2043.035300 102*2039.630594 
102*2039.630594 102*2036.225887 
102*2036.225887 102*2032.821180 
102*2032.821180 102*2029.416473 
102*2029.416473 102*2026.011767 
102*2026.011767 102*2022.607060 
102*2022.607060 102*2019.202353 
102*2019.202353 102*2015.797647 
102*2015.797647 102*2012.392940 
102*2012.392940 102*2008.988233 
102*2008.988233 102*2005.583527 
102*2005.583527 102*2002.178820 
102*2002.178820 102*1998.774113 
102*1998.774113 102*1995.369406 
102*1995.369406 102*1991.964700 
102*1991.964700 102*1988.559993 
102*1988.559993 102*1985.155286 
102*1985.155286 102*1981.750580 
102*1981.750580 102*1978.345873 
102*1978.345873 102*1974.941166 
102*1974.941166 102*1971.536459 
102*1971.536459 102*1968.131753 
102*1968.131753 102*1964.727046 
102*1964.727046 102*1961.322339 
102*1961.322339 102*1957.917633 
102*1957.917633 102*1954.512926 
102*1954.512926 102*1951.108219 
102*1951.108219 102*1947.703512 
102*1947.703512 102*1944.298806 
102*1944.298806 102*1940.894099 
102*1940.894099 102*1937.489392 
102*1937.489392 102*1934.084686 
102*2110.224728 102*2106.820021 
102*2106.820021 102*2103.415314 
102*2103.415314 102*2100.010608 
102*2100.010608 102*2096.605901 
102*2096.605901 102*2093.201194 
102*2093.201194 102*2089.796488 
102*2089.796488 102*2086.391781 
102*2086.391781 102*2082.987074 
102*2082.987074 102*2079.582367 
102*2079.582367 102*2076.177661 
102*2076.177661 102*2072.772954 
102*2072.772954 102*2069.368247 
102*2069.368247 102*2065.963541 
102*2065.963541 102*2062.558834 
102*2062.558834 102*2059.154127 
102*2059.154127 102*2055.749420 
102*2055.749420 102*2052.344714 
102*2052.344714 102*2048.940007 
102*2048.940007 102*2045.535300 
102*2045.535300 102*2042.130594 
102*2042.130594 102*2038.725887 
102*2038.725887 102*2035.321180 
102*2035.321180 102*2031.916473 
102*2031.916473 102*2028.511767 
102*2028.511767 102*2025.107060 
102*2025.107060 102*2021.702353 
102*2021.702353 102*2018.297647 
102*2018.297647 102*2014.892940 
102*2014.892940 102*2011.488233 
102*2011.488233 102*2008.083527 
102*2008.083527 102*2004.678820 
102*2004.678820 102*2001.274113 
102*2001.274113 102*1997.869406 
102*1997.869406 102*1994.464700 
102*1994.464700 102*1991.059993 
102*1991.059993 102*1987.655286 
102*1987.655286 102*1984.250580 
102*1984.250580 102*1980.845873 
102*1980.845873 102*1977.441166 
102*1977.441166 102*1974.036459 
102*1974.036459 102*1970.631753 
102*1970.631753 102*1967.227046 
102*1967.227046 102*1963.822339 
102*1963.822339 102*1960.417633 
102*1960.417633 102*1957.012926 
102*1957.012926 102*1953.608219 
102*1953.608219 102*1950.203512 
102*1950.203512 102*1946.798806 
102*1946.798806 102*1943.394099 
102*1943.394099 102*1939.989392 
102*1939.989392 102*1936.584686 
102*2110.224728 102*2106.820021 
102*2106.820021 102*2103.415314 
102*2103.415314 102*2100.010608 
102*2100.010608 102*2096.605901 
102*2096.605901 102*2093.201194 
102*2093.201194 102*2089.796488 
102*2089.796488 102*2086.391781 
102*2086.391781 102*2082.987074 
102*2082.987074 102*2079.582367 
102*2079.582367 102*2076.177661 
102*2076.177661 102*2072.772954 
102*2072.772954 102*2069.368247 
102*2069.368247 102*2065.963541 
102*2065.963541 102*2062.558834 
102*2062.558834 102*2059.154127 
102*2059.154127 102*2055.749420 
102*2055.749420 102*2052.344714 
102*2052.344714 102*2048.940007 
102*2048.940007 102*2045.535300 
102*2045.535300 102*2042.130594 
102*2042.130594 102*2038.725887 
102*2038.725887 102*2035.321180 
102*2035.321180 102*2031.916473 
102*2031.916473 102*2028.511767 
102*2028.511767 102*2025.107060 
102*2025.107060 102*2021.702353 
102*2021.702353 102*2018.297647 
102*2018.297647 102*2014.892940 
102*2014.892940 102*2011.488233 
102*2011.488233 102*2008.083527 
102*2008.083527 102*2004.678820 
102*2004.678820 102*2001.274113 
102*2001.274113 102*1997.869406 
102*1997.869406 102*1994.464700 
102*1994.464700 102*1991.059993 
102*1991.059993 102*1987.655286 
102*1987.655286 102*1984.250580 
102*1984.250580 102*1980.845873 
102*1980.845873 102*1977.441166 
102*1977.441166 102*1974.036459 
102*1974.036459 102*1970.631753 
102*1970.631753 102*1967.227046 
102*1967.227046 102*1963.822339 
102*1963.822339 102*1960.417633 
102*1960.417633 102*1957.012926 
102*1957.012926 102*1953.608219 
102*1953.608219 102*1950.203512 
102*1950.203512 102*1946.798806 
102*1946.798806 102*1943.394099 
102*1943.394099 102*1939.989392 
102*1939.989392 102*1936.584686 
102*2112.724728 102*2109.320021 
102*2109.320021 102*2105.915314 
102*2105.915314 102*2102.510608 
102*2102.510608 102*2099.105901 
102*2099.105901 102*2095.701194 
102*2095.701194 102*2092.296488 
102*2092.296488 102*2088.891781 
102*2088.891781 102*2085.487074 
102*2085.487074 102*2082.082367 
102*2082.082367 102*2078.677661 
102*2078.677661 102*2075.272954 
102*2075.272954 102*2071.868247 
102*2071.868247 102*2068.463541 
102*2068.463541 102*2065.058834 
102*2065.058834 102*2061.654127 
102*2061.654127 102*2058.249420 
102*2058.249420 102*2054.844714 
102*2054.844714 102*2051.440007 
102*2051.440007 102*2048.035300 
102*2048.035300 102*2044.630594 
102*2044.630594 102*2041.225887 
102*2041.225887 102*2037.821180 
102*2037.821180 102*2034.416473 
102*2034.416473 102*2031.011767 
102*2031.011767 102*2027.607060 
102*2027.607060 102*2024.202353 
102*2024.202353 102*2020.797647 
102*2020.797647 102*2017.392940 
102*2017.392940 102*2013.988233 
102*2013.988233 102*2010.583527 
102*2010.583527 102*2007.178820 
102*2007.178820 102*2003.774113 
102*2003.774113 102*2000.369406 
102*2000.369406 102*1996.964700 
102*1996.964700 102*1993.559993 
102*1993.559993 102*1990.155286 
102*1990.155286 102*1986.750580 
102*1986.750580 102*1983.345873 
102*1983.345873 102*1979.941166 
102*1979.941166 102*1976.536459 
102*1976.536459 102*1973.131753 