ZCORN
102*2118.945431 102*2114.456924 
102*2114.456924 102*2109.968417 
102*2109.968417 102*2105.479910 
102*2105.479910 102*2100.991404 
102*2100.991404 102*2096.502897 
102*2096.502897 102*2092.014390 
102*2092.014390 102*2087.525883 
102*2087.525883 102*2083.037376 
102*2083.037376 102*2078.548869 
102*2078.548869 102*2074.060363 
102*2074.060363 102*2069.571856 
102*2069.571856 102*2065.083349 
102*2065.083349 102*2060.594842 
102*2060.594842 102*2056.106335 
102*2056.106335 102*2051.617828 
102*2051.617828 102*2047.129322 
102*2047.129322 102*2042.640815 
102*2042.640815 102*2038.152308 
102*2038.152308 102*2033.663801 
102*2033.663801 102*2029.175294 
102*2029.175294 102*2024.686788 
102*2024.686788 102*2020.198281 
102*2020.198281 102*2015.709774 
102*2015.709774 102*2011.221267 
102*2011.221267 102*2006.732760 
102*2006.732760 102*2002.244253 
102*2002.244253 102*1997.755747 
102*1997.755747 102*1993.267240 
102*1993.267240 102*1988.778733 
102*1988.778733 102*1984.290226 
102*1984.290226 102*1979.801719 
102*1979.801719 102*1975.313212 
102*1975.313212 102*1970.824706 
102*1970.824706 102*1966.336199 
102*1966.336199 102*1961.847692 
102*1961.847692 102*1957.359185 
102*1957.359185 102*1952.870678 
102*1952.870678 102*1948.382172 
102*1948.382172 102*1943.893665 
102*1943.893665 102*1939.405158 
102*1939.405158 102*1934.916651 
102*1934.916651 102*1930.428144 
102*1930.428144 102*1925.939637 
102*1925.939637 102*1921.451131 
102*1921.451131 102*1916.962624 
102*1916.962624 102*1912.474117 
102*1912.474117 102*1907.985610 
102*1907.985610 102*1903.497103 
102*1903.497103 102*1899.008596 
102*1899.008596 102*1894.520090 
102*1894.520090 102*1890.031583 
102*2121.445431 102*2116.956924 
102*2116.956924 102*2112.468417 
102*2112.468417 102*2107.979910 
102*2107.979910 102*2103.491404 
102*2103.491404 102*2099.002897 
102*2099.002897 102*2094.514390 
102*2094.514390 102*2090.025883 
102*2090.025883 102*2085.537376 
102*2085.537376 102*2081.048869 
102*2081.048869 102*2076.560363 
102*2076.560363 102*2072.071856 
102*2072.071856 102*2067.583349 
102*2067.583349 102*2063.094842 
102*2063.094842 102*2058.606335 
102*2058.606335 102*2054.117828 
102*2054.117828 102*2049.629322 
102*2049.629322 102*2045.140815 
102*2045.140815 102*2040.652308 
102*2040.652308 102*2036.163801 
102*2036.163801 102*2031.675294 
102*2031.675294 102*2027.186788 
102*2027.186788 102*2022.698281 
102*2022.698281 102*2018.209774 
102*2018.209774 102*2013.721267 
102*2013.721267 102*2009.232760 
102*2009.232760 102*2004.744253 
102*2004.744253 102*2000.255747 
102*2000.255747 102*1995.767240 
102*1995.767240 102*1991.278733 
102*1991.278733 102*1986.790226 
102*1986.790226 102*1982.301719 
102*1982.301719 102*1977.813212 
102*1977.813212 102*1973.324706 
102*1973.324706 102*1968.836199 
102*1968.836199 102*1964.347692 
102*1964.347692 102*1959.859185 
102*1959.859185 102*1955.370678 
102*1955.370678 102*1950.882172 
102*1950.882172 102*1946.393665 
102*1946.393665 102*1941.905158 
102*1941.905158 102*1937.416651 
102*1937.416651 102*1932.928144 
102*1932.928144 102*1928.439637 
102*1928.439637 102*1923.951131 
102*1923.951131 102*1919.462624 
102*1919.462624 102*1914.974117 
102*1914.974117 102*1910.485610 
102*1910.485610 102*1905.997103 
102*1905.997103 102*1901.508596 
102*1901.508596 102*1897.020090 
102*1897.020090 102*1892.531583 
102*2121.445431 102*2116.956924 
102*2116.956924 102*2112.468417 
102*2112.468417 102*2107.979910 
102*2107.979910 102*2103.491404 
102*2103.491404 102*2099.002897 
102*2099.002897 102*2094.514390 
102*2094.514390 102*2090.025883 
102*2090.025883 102*2085.537376 
102*2085.537376 102*2081.048869 
102*2081.048869 102*2076.560363 
102*2076.560363 102*2072.071856 
102*2072.071856 102*2067.583349 
102*2067.583349 102*2063.094842 
102*2063.094842 102*2058.606335 
102*2058.606335 102*2054.117828 
102*2054.117828 102*2049.629322 
102*2049.629322 102*2045.140815 
102*2045.140815 102*2040.652308 
102*2040.652308 102*2036.163801 
102*2036.163801 102*2031.675294 
102*2031.675294 102*2027.186788 
102*2027.186788 102*2022.698281 
102*2022.698281 102*2018.209774 
102*2018.209774 102*2013.721267 
102*2013.721267 102*2009.232760 
102*2009.232760 102*2004.744253 
102*2004.744253 102*2000.255747 
102*2000.255747 102*1995.767240 
102*1995.767240 102*1991.278733 
102*1991.278733 102*1986.790226 
102*1986.790226 102*1982.301719 
102*1982.301719 102*1977.813212 
102*1977.813212 102*1973.324706 
102*1973.324706 102*1968.836199 
102*1968.836199 102*1964.347692 
102*1964.347692 102*1959.859185 
102*1959.859185 102*1955.370678 
102*1955.370678 102*1950.882172 
102*1950.882172 102*1946.393665 
102*1946.393665 102*1941.905158 
102*1941.905158 102*1937.416651 
102*1937.416651 102*1932.928144 
102*1932.928144 102*1928.439637 
102*1928.439637 102*1923.951131 
102*1923.951131 102*1919.462624 
102*1919.462624 102*1914.974117 
102*1914.974117 102*1910.485610 
102*1910.485610 102*1905.997103 
102*1905.997103 102*1901.508596 
102*1901.508596 102*1897.020090 
102*1897.020090 102*1892.531583 
102*2123.945431 102*2119.456924 
102*2119.456924 102*2114.968417 
102*2114.968417 102*2110.479910 
102*2110.479910 102*2105.991404 
102*2105.991404 102*2101.502897 
102*2101.502897 102*2097.014390 
102*2097.014390 102*2092.525883 
102*2092.525883 102*2088.037376 
102*2088.037376 102*2083.548869 
102*2083.548869 102*2079.060363 
102*2079.060363 102*2074.571856 
102*2074.571856 102*2070.083349 
102*2070.083349 102*2065.594842 
102*2065.594842 102*2061.106335 
102*2061.106335 102*2056.617828 
102*2056.617828 102*2052.129322 
102*2052.129322 102*2047.640815 
102*2047.640815 102*2043.152308 
102*2043.152308 102*2038.663801 
102*2038.663801 102*2034.175294 
102*2034.175294 102*2029.686788 
102*2029.686788 102*2025.198281 
102*2025.198281 102*2020.709774 
102*2020.709774 102*2016.221267 
102*2016.221267 102*2011.732760 
102*2011.732760 102*2007.244253 
102*2007.244253 102*2002.755747 
102*2002.755747 102*1998.267240 
102*1998.267240 102*1993.778733 
102*1993.778733 102*1989.290226 
102*1989.290226 102*1984.801719 
102*1984.801719 102*1980.313212 
102*1980.313212 102*1975.824706 
102*1975.824706 102*1971.336199 
102*1971.336199 102*1966.847692 
102*1966.847692 102*1962.359185 
102*1962.359185 102*1957.870678 
102*1957.870678 102*1953.382172 
102*1953.382172 102*1948.893665 
102*1948.893665 102*1944.405158 
102*1944.405158 102*1939.916651 
102*1939.916651 102*1935.428144 
102*1935.428144 102*1930.939637 
102*1930.939637 102*1926.451131 
102*1926.451131 102*1921.962624 
102*1921.962624 102*1917.474117 
102*1917.474117 102*1912.985610 
102*1912.985610 102*1908.497103 
102*1908.497103 102*1904.008596 
102*1904.008596 102*1899.520090 
102*1899.520090 102*1895.031583 
102*2123.945431 102*2119.456924 
102*2119.456924 102*2114.968417 
102*2114.968417 102*2110.479910 
102*2110.479910 102*2105.991404 
102*2105.991404 102*2101.502897 
102*2101.502897 102*2097.014390 
102*2097.014390 102*2092.525883 
102*2092.525883 102*2088.037376 
102*2088.037376 102*2083.548869 
102*2083.548869 102*2079.060363 
102*2079.060363 102*2074.571856 
102*2074.571856 102*2070.083349 
102*2070.083349 102*2065.594842 
102*2065.594842 102*2061.106335 
102*2061.106335 102*2056.617828 
102*2056.617828 102*2052.129322 
102*2052.129322 102*2047.640815 
102*2047.640815 102*2043.152308 
102*2043.152308 102*2038.663801 
102*2038.663801 102*2034.175294 
102*2034.175294 102*2029.686788 
102*2029.686788 102*2025.198281 
102*2025.198281 102*2020.709774 
102*2020.709774 102*2016.221267 
102*2016.221267 102*2011.732760 
102*2011.732760 102*2007.244253 
102*2007.244253 102*2002.755747 
102*2002.755747 102*1998.267240 
102*1998.267240 102*1993.778733 
102*1993.778733 102*1989.290226 
102*1989.290226 102*1984.801719 
102*1984.801719 102*1980.313212 
102*1980.313212 102*1975.824706 
102*1975.824706 102*1971.336199 
102*1971.336199 102*1966.847692 
102*1966.847692 102*1962.359185 
102*1962.359185 102*1957.870678 
102*1957.870678 102*1953.382172 
102*1953.382172 102*1948.893665 
102*1948.893665 102*1944.405158 
102*1944.405158 102*1939.916651 
102*1939.916651 102*1935.428144 
102*1935.428144 102*1930.939637 
102*1930.939637 102*1926.451131 
102*1926.451131 102*1921.962624 
102*1921.962624 102*1917.474117 
102*1917.474117 102*1912.985610 
102*1912.985610 102*1908.497103 
102*1908.497103 102*1904.008596 
102*1904.008596 102*1899.520090 
102*1899.520090 102*1895.031583 
102*2126.445431 102*2121.956924 
102*2121.956924 102*2117.468417 
102*2117.468417 102*2112.979910 
102*2112.979910 102*2108.491404 
102*2108.491404 102*2104.002897 
102*2104.002897 102*2099.514390 
102*2099.514390 102*2095.025883 
102*2095.025883 102*2090.537376 
102*2090.537376 102*2086.048869 
102*2086.048869 102*2081.560363 
102*2081.560363 102*2077.071856 
102*2077.071856 102*2072.583349 
102*2072.583349 102*2068.094842 
102*2068.094842 102*2063.606335 
102*2063.606335 102*2059.117828 
102*2059.117828 102*2054.629322 
102*2054.629322 102*2050.140815 
102*2050.140815 102*2045.652308 
102*2045.652308 102*2041.163801 
102*2041.163801 102*2036.675294 
102*2036.675294 102*2032.186788 
102*2032.186788 102*2027.698281 
102*2027.698281 102*2023.209774 
102*2023.209774 102*2018.721267 
102*2018.721267 102*2014.232760 
102*2014.232760 102*2009.744253 
102*2009.744253 102*2005.255747 
102*2005.255747 102*2000.767240 
102*2000.767240 102*1996.278733 
102*1996.278733 102*1991.790226 
102*1991.790226 102*1987.301719 
102*1987.301719 102*1982.813212 
102*1982.813212 102*1978.324706 
102*1978.324706 102*1973.836199 
102*1973.836199 102*1969.347692 
102*1969.347692 102*1964.859185 
102*1964.859185 102*1960.370678 
102*1960.370678 102*1955.882172 
102*1955.882172 102*1951.393665 
102*1951.393665 102*1946.905158 
102*1946.905158 102*1942.416651 
102*1942.416651 102*1937.928144 
102*1937.928144 102*1933.439637 
102*1933.439637 102*1928.951131 
102*1928.951131 102*1924.462624 
102*1924.462624 102*1919.974117 
102*1919.974117 102*1915.485610 
102*1915.485610 102*1910.997103 
102*1910.997103 102*1906.508596 
102*1906.508596 102*1902.020090 
102*1902.020090 102*1897.531583 
102*2126.445431 102*2121.956924 
102*2121.956924 102*2117.468417 
102*2117.468417 102*2112.979910 
102*2112.979910 102*2108.491404 
102*2108.491404 102*2104.002897 
102*2104.002897 102*2099.514390 
102*2099.514390 102*2095.025883 
102*2095.025883 102*2090.537376 
102*2090.537376 102*2086.048869 
102*2086.048869 102*2081.560363 
102*2081.560363 102*2077.071856 
102*2077.071856 102*2072.583349 
102*2072.583349 102*2068.094842 
102*2068.094842 102*2063.606335 
102*2063.606335 102*2059.117828 
102*2059.117828 102*2054.629322 
102*2054.629322 102*2050.140815 
102*2050.140815 102*2045.652308 
102*2045.652308 102*2041.163801 
102*2041.163801 102*2036.675294 
102*2036.675294 102*2032.186788 
102*2032.186788 102*2027.698281 
102*2027.698281 102*2023.209774 
102*2023.209774 102*2018.721267 
102*2018.721267 102*2014.232760 
102*2014.232760 102*2009.744253 
102*2009.744253 102*2005.255747 
102*2005.255747 102*2000.767240 
102*2000.767240 102*1996.278733 
102*1996.278733 102*1991.790226 
102*1991.790226 102*1987.301719 
102*1987.301719 102*1982.813212 
102*1982.813212 102*1978.324706 
102*1978.324706 102*1973.836199 
102*1973.836199 102*1969.347692 
102*1969.347692 102*1964.859185 
102*1964.859185 102*1960.370678 
102*1960.370678 102*1955.882172 
102*1955.882172 102*1951.393665 
102*1951.393665 102*1946.905158 
102*1946.905158 102*1942.416651 
102*1942.416651 102*1937.928144 
102*1937.928144 102*1933.439637 
102*1933.439637 102*1928.951131 
102*1928.951131 102*1924.462624 
102*1924.462624 102*1919.974117 
102*1919.974117 102*1915.485610 
102*1915.485610 102*1910.997103 
102*1910.997103 102*1906.508596 
102*1906.508596 102*1902.020090 
102*1902.020090 102*1897.531583 
102*2128.945431 102*2124.456924 
102*2124.456924 102*2119.968417 
102*2119.968417 102*2115.479910 
102*2115.479910 102*2110.991404 
102*2110.991404 102*2106.502897 
102*2106.502897 102*2102.014390 
102*2102.014390 102*2097.525883 
102*2097.525883 102*2093.037376 
102*2093.037376 102*2088.548869 
102*2088.548869 102*2084.060363 
102*2084.060363 102*2079.571856 
102*2079.571856 102*2075.083349 
102*2075.083349 102*2070.594842 
102*2070.594842 102*2066.106335 
102*2066.106335 102*2061.617828 
102*2061.617828 102*2057.129322 
102*2057.129322 102*2052.640815 
102*2052.640815 102*2048.152308 
102*2048.152308 102*2043.663801 
102*2043.663801 102*2039.175294 
102*2039.175294 102*2034.686788 
102*2034.686788 102*2030.198281 
102*2030.198281 102*2025.709774 
102*2025.709774 102*2021.221267 
102*2021.221267 102*2016.732760 
102*2016.732760 102*2012.244253 
102*2012.244253 102*2007.755747 
102*2007.755747 102*2003.267240 
102*2003.267240 102*1998.778733 
102*1998.778733 102*1994.290226 
102*1994.290226 102*1989.801719 
102*1989.801719 102*1985.313212 
102*1985.313212 102*1980.824706 
102*1980.824706 102*1976.336199 
102*1976.336199 102*1971.847692 
102*1971.847692 102*1967.359185 
102*1967.359185 102*1962.870678 
102*1962.870678 102*1958.382172 
102*1958.382172 102*1953.893665 
102*1953.893665 102*1949.405158 
102*1949.405158 102*1944.916651 
102*1944.916651 102*1940.428144 
102*1940.428144 102*1935.939637 
102*1935.939637 102*1931.451131 
102*1931.451131 102*1926.962624 
102*1926.962624 102*1922.474117 
102*1922.474117 102*1917.985610 
102*1917.985610 102*1913.497103 
102*1913.497103 102*1909.008596 
102*1909.008596 102*1904.520090 
102*1904.520090 102*1900.031583 
102*2128.945431 102*2124.456924 
102*2124.456924 102*2119.968417 
102*2119.968417 102*2115.479910 
102*2115.479910 102*2110.991404 
102*2110.991404 102*2106.502897 
102*2106.502897 102*2102.014390 
102*2102.014390 102*2097.525883 
102*2097.525883 102*2093.037376 
102*2093.037376 102*2088.548869 
102*2088.548869 102*2084.060363 
102*2084.060363 102*2079.571856 
102*2079.571856 102*2075.083349 
102*2075.083349 102*2070.594842 
102*2070.594842 102*2066.106335 
102*2066.106335 102*2061.617828 
102*2061.617828 102*2057.129322 
102*2057.129322 102*2052.640815 
102*2052.640815 102*2048.152308 
102*2048.152308 102*2043.663801 
102*2043.663801 102*2039.175294 
102*2039.175294 102*2034.686788 
102*2034.686788 102*2030.198281 
102*2030.198281 102*2025.709774 
102*2025.709774 102*2021.221267 
102*2021.221267 102*2016.732760 
102*2016.732760 102*2012.244253 
102*2012.244253 102*2007.755747 
102*2007.755747 102*2003.267240 
102*2003.267240 102*1998.778733 
102*1998.778733 102*1994.290226 
102*1994.290226 102*1989.801719 
102*1989.801719 102*1985.313212 
102*1985.313212 102*1980.824706 
102*1980.824706 102*1976.336199 
102*1976.336199 102*1971.847692 
102*1971.847692 102*1967.359185 
102*1967.359185 102*1962.870678 
102*1962.870678 102*1958.382172 
102*1958.382172 102*1953.893665 
102*1953.893665 102*1949.405158 
102*1949.405158 102*1944.916651 
102*1944.916651 102*1940.428144 
102*1940.428144 102*1935.939637 
102*1935.939637 102*1931.451131 
102*1931.451131 102*1926.962624 
102*1926.962624 102*1922.474117 
102*1922.474117 102*1917.985610 
102*1917.985610 102*1913.497103 
102*1913.497103 102*1909.008596 
102*1909.008596 102*1904.520090 
102*1904.520090 102*1900.031583 
102*2131.445431 102*2126.956924 
102*2126.956924 102*2122.468417 
102*2122.468417 102*2117.979910 
102*2117.979910 102*2113.491404 
102*2113.491404 102*2109.002897 
102*2109.002897 102*2104.514390 
102*2104.514390 102*2100.025883 
102*2100.025883 102*2095.537376 
102*2095.537376 102*2091.048869 
102*2091.048869 102*2086.560363 
102*2086.560363 102*2082.071856 
102*2082.071856 102*2077.583349 
102*2077.583349 102*2073.094842 
102*2073.094842 102*2068.606335 
102*2068.606335 102*2064.117828 
102*2064.117828 102*2059.629322 
102*2059.629322 102*2055.140815 
102*2055.140815 102*2050.652308 
102*2050.652308 102*2046.163801 
102*2046.163801 102*2041.675294 
102*2041.675294 102*2037.186788 
102*2037.186788 102*2032.698281 
102*2032.698281 102*2028.209774 
102*2028.209774 102*2023.721267 
102*2023.721267 102*2019.232760 
102*2019.232760 102*2014.744253 
102*2014.744253 102*2010.255747 
102*2010.255747 102*2005.767240 
102*2005.767240 102*2001.278733 
102*2001.278733 102*1996.790226 
102*1996.790226 102*1992.301719 
102*1992.301719 102*1987.813212 
102*1987.813212 102*1983.324706 
102*1983.324706 102*1978.836199 
102*1978.836199 102*1974.347692 
102*1974.347692 102*1969.859185 
102*1969.859185 102*1965.370678 
102*1965.370678 102*1960.882172 
102*1960.882172 102*1956.393665 
102*1956.393665 102*1951.905158 
102*1951.905158 102*1947.416651 
102*1947.416651 102*1942.928144 
102*1942.928144 102*1938.439637 
102*1938.439637 102*1933.951131 
102*1933.951131 102*1929.462624 
102*1929.462624 102*1924.974117 
102*1924.974117 102*1920.485610 
102*1920.485610 102*1915.997103 
102*1915.997103 102*1911.508596 
102*1911.508596 102*1907.020090 
102*1907.020090 102*1902.531583 
102*2131.445431 102*2126.956924 
102*2126.956924 102*2122.468417 
102*2122.468417 102*2117.979910 
102*2117.979910 102*2113.491404 
102*2113.491404 102*2109.002897 
102*2109.002897 102*2104.514390 
102*2104.514390 102*2100.025883 
102*2100.025883 102*2095.537376 
102*2095.537376 102*2091.048869 
102*2091.048869 102*2086.560363 
102*2086.560363 102*2082.071856 
102*2082.071856 102*2077.583349 
102*2077.583349 102*2073.094842 
102*2073.094842 102*2068.606335 
102*2068.606335 102*2064.117828 
102*2064.117828 102*2059.629322 
102*2059.629322 102*2055.140815 
102*2055.140815 102*2050.652308 
102*2050.652308 102*2046.163801 
102*2046.163801 102*2041.675294 
102*2041.675294 102*2037.186788 
102*2037.186788 102*2032.698281 
102*2032.698281 102*2028.209774 
102*2028.209774 102*2023.721267 
102*2023.721267 102*2019.232760 
102*2019.232760 102*2014.744253 
102*2014.744253 102*2010.255747 
102*2010.255747 102*2005.767240 
102*2005.767240 102*2001.278733 
102*2001.278733 102*1996.790226 
102*1996.790226 102*1992.301719 
102*1992.301719 102*1987.813212 
102*1987.813212 102*1983.324706 
102*1983.324706 102*1978.836199 
102*1978.836199 102*1974.347692 
102*1974.347692 102*1969.859185 
102*1969.859185 102*1965.370678 
102*1965.370678 102*1960.882172 
102*1960.882172 102*1956.393665 
102*1956.393665 102*1951.905158 
102*1951.905158 102*1947.416651 
102*1947.416651 102*1942.928144 
102*1942.928144 102*1938.439637 
102*1938.439637 102*1933.951131 
102*1933.951131 102*1929.462624 
102*1929.462624 102*1924.974117 
102*1924.974117 102*1920.485610 
102*1920.485610 102*1915.997103 
102*1915.997103 102*1911.508596 
102*1911.508596 102*1907.020090 
102*1907.020090 102*1902.531583 
102*2133.945431 102*2129.456924 
102*2129.456924 102*2124.968417 
102*2124.968417 102*2120.479910 
102*2120.479910 102*2115.991404 
102*2115.991404 102*2111.502897 
102*2111.502897 102*2107.014390 
102*2107.014390 102*2102.525883 
102*2102.525883 102*2098.037376 
102*2098.037376 102*2093.548869 
102*2093.548869 102*2089.060363 
102*2089.060363 102*2084.571856 
102*2084.571856 102*2080.083349 
102*2080.083349 102*2075.594842 
102*2075.594842 102*2071.106335 
102*2071.106335 102*2066.617828 
102*2066.617828 102*2062.129322 
102*2062.129322 102*2057.640815 
102*2057.640815 102*2053.152308 
102*2053.152308 102*2048.663801 
102*2048.663801 102*2044.175294 
102*2044.175294 102*2039.686788 
102*2039.686788 102*2035.198281 
102*2035.198281 102*2030.709774 
102*2030.709774 102*2026.221267 
102*2026.221267 102*2021.732760 
102*2021.732760 102*2017.244253 
102*2017.244253 102*2012.755747 
102*2012.755747 102*2008.267240 
102*2008.267240 102*2003.778733 
102*2003.778733 102*1999.290226 
102*1999.290226 102*1994.801719 
102*1994.801719 102*1990.313212 
102*1990.313212 102*1985.824706 
102*1985.824706 102*1981.336199 
102*1981.336199 102*1976.847692 
102*1976.847692 102*1972.359185 
102*1972.359185 102*1967.870678 
102*1967.870678 102*1963.382172 
102*1963.382172 102*1958.893665 
102*1958.893665 102*1954.405158 
102*1954.405158 102*1949.916651 
102*1949.916651 102*1945.428144 
102*1945.428144 102*1940.939637 
102*1940.939637 102*1936.451131 
102*1936.451131 102*1931.962624 
102*1931.962624 102*1927.474117 
102*1927.474117 102*1922.985610 
102*1922.985610 102*1918.497103 
102*1918.497103 102*1914.008596 
102*1914.008596 102*1909.520090 
102*1909.520090 102*1905.031583 
102*2133.945431 102*2129.456924 
102*2129.456924 102*2124.968417 
102*2124.968417 102*2120.479910 
102*2120.479910 102*2115.991404 
102*2115.991404 102*2111.502897 
102*2111.502897 102*2107.014390 
102*2107.014390 102*2102.525883 
102*2102.525883 102*2098.037376 
102*2098.037376 102*2093.548869 
102*2093.548869 102*2089.060363 
102*2089.060363 102*2084.571856 
102*2084.571856 102*2080.083349 
102*2080.083349 102*2075.594842 
102*2075.594842 102*2071.106335 
102*2071.106335 102*2066.617828 
102*2066.617828 102*2062.129322 
102*2062.129322 102*2057.640815 
102*2057.640815 102*2053.152308 
102*2053.152308 102*2048.663801 
102*2048.663801 102*2044.175294 
102*2044.175294 102*2039.686788 
102*2039.686788 102*2035.198281 
102*2035.198281 102*2030.709774 
102*2030.709774 102*2026.221267 
102*2026.221267 102*2021.732760 
102*2021.732760 102*2017.244253 
102*2017.244253 102*2012.755747 
102*2012.755747 102*2008.267240 
102*2008.267240 102*2003.778733 
102*2003.778733 102*1999.290226 
102*1999.290226 102*1994.801719 
102*1994.801719 102*1990.313212 
102*1990.313212 102*1985.824706 
102*1985.824706 102*1981.336199 
102*1981.336199 102*1976.847692 
102*1976.847692 102*1972.359185 
102*1972.359185 102*1967.870678 
102*1967.870678 102*1963.382172 
102*1963.382172 102*1958.893665 
102*1958.893665 102*1954.405158 
102*1954.405158 102*1949.916651 
102*1949.916651 102*1945.428144 
102*1945.428144 102*1940.939637 
102*1940.939637 102*1936.451131 
102*1936.451131 102*1931.962624 
102*1931.962624 102*1927.474117 
102*1927.474117 102*1922.985610 
102*1922.985610 102*1918.497103 
102*1918.497103 102*1914.008596 
102*1914.008596 102*1909.520090 
102*1909.520090 102*1905.031583 
102*2136.445431 102*2131.956924 
102*2131.956924 102*2127.468417 
102*2127.468417 102*2122.979910 
102*2122.979910 102*2118.491404 
102*2118.491404 102*2114.002897 
102*2114.002897 102*2109.514390 
102*2109.514390 102*2105.025883 
102*2105.025883 102*2100.537376 
102*2100.537376 102*2096.048869 
102*2096.048869 102*2091.560363 
102*2091.560363 102*2087.071856 
102*2087.071856 102*2082.583349 
102*2082.583349 102*2078.094842 
102*2078.094842 102*2073.606335 
102*2073.606335 102*2069.117828 
102*2069.117828 102*2064.629322 
102*2064.629322 102*2060.140815 
102*2060.140815 102*2055.652308 
102*2055.652308 102*2051.163801 
102*2051.163801 102*2046.675294 
102*2046.675294 102*2042.186788 
102*2042.186788 102*2037.698281 
102*2037.698281 102*2033.209774 
102*2033.209774 102*2028.721267 
102*2028.721267 102*2024.232760 
102*2024.232760 102*2019.744253 
102*2019.744253 102*2015.255747 
102*2015.255747 102*2010.767240 
102*2010.767240 102*2006.278733 
102*2006.278733 102*2001.790226 
102*2001.790226 102*1997.301719 
102*1997.301719 102*1992.813212 
102*1992.813212 102*1988.324706 
102*1988.324706 102*1983.836199 
102*1983.836199 102*1979.347692 
102*1979.347692 102*1974.859185 
102*1974.859185 102*1970.370678 
102*1970.370678 102*1965.882172 
102*1965.882172 102*1961.393665 
102*1961.393665 102*1956.905158 
102*1956.905158 102*1952.416651 
102*1952.416651 102*1947.928144 
102*1947.928144 102*1943.439637 
102*1943.439637 102*1938.951131 
102*1938.951131 102*1934.462624 
102*1934.462624 102*1929.974117 
102*1929.974117 102*1925.485610 
102*1925.485610 102*1920.997103 
102*1920.997103 102*1916.508596 
102*1916.508596 102*1912.020090 
102*1912.020090 102*1907.531583 
102*2136.445431 102*2131.956924 
102*2131.956924 102*2127.468417 
102*2127.468417 102*2122.979910 
102*2122.979910 102*2118.491404 
102*2118.491404 102*2114.002897 
102*2114.002897 102*2109.514390 
102*2109.514390 102*2105.025883 
102*2105.025883 102*2100.537376 
102*2100.537376 102*2096.048869 
102*2096.048869 102*2091.560363 
102*2091.560363 102*2087.071856 
102*2087.071856 102*2082.583349 
102*2082.583349 102*2078.094842 
102*2078.094842 102*2073.606335 
102*2073.606335 102*2069.117828 
102*2069.117828 102*2064.629322 
102*2064.629322 102*2060.140815 
102*2060.140815 102*2055.652308 
102*2055.652308 102*2051.163801 
102*2051.163801 102*2046.675294 
102*2046.675294 102*2042.186788 
102*2042.186788 102*2037.698281 
102*2037.698281 102*2033.209774 
102*2033.209774 102*2028.721267 
102*2028.721267 102*2024.232760 
102*2024.232760 102*2019.744253 
102*2019.744253 102*2015.255747 
102*2015.255747 102*2010.767240 
102*2010.767240 102*2006.278733 
102*2006.278733 102*2001.790226 
102*2001.790226 102*1997.301719 
102*1997.301719 102*1992.813212 
102*1992.813212 102*1988.324706 
102*1988.324706 102*1983.836199 
102*1983.836199 102*1979.347692 
102*1979.347692 102*1974.859185 
102*1974.859185 102*1970.370678 
102*1970.370678 102*1965.882172 
102*1965.882172 102*1961.393665 
102*1961.393665 102*1956.905158 
102*1956.905158 102*1952.416651 
102*1952.416651 102*1947.928144 
102*1947.928144 102*1943.439637 
102*1943.439637 102*1938.951131 
102*1938.951131 102*1934.462624 
102*1934.462624 102*1929.974117 
102*1929.974117 102*1925.485610 
102*1925.485610 102*1920.997103 
102*1920.997103 102*1916.508596 
102*1916.508596 102*1912.020090 
102*1912.020090 102*1907.531583 
102*2138.945431 102*2134.456924 
102*2134.456924 102*2129.968417 
102*2129.968417 102*2125.479910 
102*2125.479910 102*2120.991404 
102*2120.991404 102*2116.502897 
102*2116.502897 102*2112.014390 
102*2112.014390 102*2107.525883 
102*2107.525883 102*2103.037376 
102*2103.037376 102*2098.548869 
102*2098.548869 102*2094.060363 
102*2094.060363 102*2089.571856 
102*2089.571856 102*2085.083349 
102*2085.083349 102*2080.594842 
102*2080.594842 102*2076.106335 
102*2076.106335 102*2071.617828 
102*2071.617828 102*2067.129322 
102*2067.129322 102*2062.640815 
102*2062.640815 102*2058.152308 
102*2058.152308 102*2053.663801 
102*2053.663801 102*2049.175294 
102*2049.175294 102*2044.686788 
102*2044.686788 102*2040.198281 
102*2040.198281 102*2035.709774 
102*2035.709774 102*2031.221267 
102*2031.221267 102*2026.732760 
102*2026.732760 102*2022.244253 
102*2022.244253 102*2017.755747 
102*2017.755747 102*2013.267240 
102*2013.267240 102*2008.778733 
102*2008.778733 102*2004.290226 
102*2004.290226 102*1999.801719 
102*1999.801719 102*1995.313212 
102*1995.313212 102*1990.824706 
102*1990.824706 102*1986.336199 
102*1986.336199 102*1981.847692 
102*1981.847692 102*1977.359185 
102*1977.359185 102*1972.870678 
102*1972.870678 102*1968.382172 
102*1968.382172 102*1963.893665 
102*1963.893665 102*1959.405158 
102*1959.405158 102*1954.916651 
102*1954.916651 102*1950.428144 
102*1950.428144 102*1945.939637 
102*1945.939637 102*1941.451131 
102*1941.451131 102*1936.962624 
102*1936.962624 102*1932.474117 
102*1932.474117 102*1927.985610 
102*1927.985610 102*1923.497103 
102*1923.497103 102*1919.008596 
102*1919.008596 102*1914.520090 
102*1914.520090 102*1910.031583 
102*2138.945431 102*2134.456924 
102*2134.456924 102*2129.968417 
102*2129.968417 102*2125.479910 
102*2125.479910 102*2120.991404 
102*2120.991404 102*2116.502897 
102*2116.502897 102*2112.014390 
102*2112.014390 102*2107.525883 
102*2107.525883 102*2103.037376 
102*2103.037376 102*2098.548869 
102*2098.548869 102*2094.060363 
102*2094.060363 102*2089.571856 
102*2089.571856 102*2085.083349 
102*2085.083349 102*2080.594842 
102*2080.594842 102*2076.106335 
102*2076.106335 102*2071.617828 
102*2071.617828 102*2067.129322 
102*2067.129322 102*2062.640815 
102*2062.640815 102*2058.152308 
102*2058.152308 102*2053.663801 
102*2053.663801 102*2049.175294 
102*2049.175294 102*2044.686788 
102*2044.686788 102*2040.198281 
102*2040.198281 102*2035.709774 
102*2035.709774 102*2031.221267 
102*2031.221267 102*2026.732760 
102*2026.732760 102*2022.244253 
102*2022.244253 102*2017.755747 
102*2017.755747 102*2013.267240 
102*2013.267240 102*2008.778733 
102*2008.778733 102*2004.290226 
102*2004.290226 102*1999.801719 
102*1999.801719 102*1995.313212 
102*1995.313212 102*1990.824706 
102*1990.824706 102*1986.336199 
102*1986.336199 102*1981.847692 
102*1981.847692 102*1977.359185 
102*1977.359185 102*1972.870678 
102*1972.870678 102*1968.382172 
102*1968.382172 102*1963.893665 
102*1963.893665 102*1959.405158 
102*1959.405158 102*1954.916651 
102*1954.916651 102*1950.428144 
102*1950.428144 102*1945.939637 
102*1945.939637 102*1941.451131 
102*1941.451131 102*1936.962624 
102*1936.962624 102*1932.474117 
102*1932.474117 102*1927.985610 
102*1927.985610 102*1923.497103 
102*1923.497103 102*1919.008596 
102*1919.008596 102*1914.520090 
102*1914.520090 102*1910.031583 
102*2141.445431 102*2136.956924 
102*2136.956924 102*2132.468417 
102*2132.468417 102*2127.979910 
102*2127.979910 102*2123.491404 
102*2123.491404 102*2119.002897 
102*2119.002897 102*2114.514390 
102*2114.514390 102*2110.025883 
102*2110.025883 102*2105.537376 
102*2105.537376 102*2101.048869 
102*2101.048869 102*2096.560363 
102*2096.560363 102*2092.071856 
102*2092.071856 102*2087.583349 
102*2087.583349 102*2083.094842 
102*2083.094842 102*2078.606335 
102*2078.606335 102*2074.117828 
102*2074.117828 102*2069.629322 
102*2069.629322 102*2065.140815 
102*2065.140815 102*2060.652308 
102*2060.652308 102*2056.163801 
102*2056.163801 102*2051.675294 
102*2051.675294 102*2047.186788 
102*2047.186788 102*2042.698281 
102*2042.698281 102*2038.209774 
102*2038.209774 102*2033.721267 
102*2033.721267 102*2029.232760 
102*2029.232760 102*2024.744253 
102*2024.744253 102*2020.255747 
102*2020.255747 102*2015.767240 
102*2015.767240 102*2011.278733 
102*2011.278733 102*2006.790226 
102*2006.790226 102*2002.301719 
102*2002.301719 102*1997.813212 
102*1997.813212 102*1993.324706 
102*1993.324706 102*1988.836199 
102*1988.836199 102*1984.347692 
102*1984.347692 102*1979.859185 
102*1979.859185 102*1975.370678 
102*1975.370678 102*1970.882172 
102*1970.882172 102*1966.393665 
102*1966.393665 102*1961.905158 
102*1961.905158 102*1957.416651 