ZCORN
102*2033.302635 102*2032.045932 
102*2032.045932 102*2030.789229 
102*2030.789229 102*2029.532525 
102*2029.532525 102*2028.275822 
102*2028.275822 102*2027.019119 
102*2027.019119 102*2025.762416 
102*2025.762416 102*2024.505713 
102*2024.505713 102*2023.249009 
102*2023.249009 102*2021.992306 
102*2021.992306 102*2020.735603 
102*2020.735603 102*2019.478900 
102*2019.478900 102*2018.222197 
102*2018.222197 102*2016.965493 
102*2016.965493 102*2015.708790 
102*2015.708790 102*2014.452087 
102*2014.452087 102*2013.195384 
102*2013.195384 102*2011.938681 
102*2011.938681 102*2010.681977 
102*2010.681977 102*2009.425274 
102*2009.425274 102*2008.168571 
102*2008.168571 102*2006.911868 
102*2006.911868 102*2005.655164 
102*2005.655164 102*2004.398461 
102*2004.398461 102*2003.141758 
102*2003.141758 102*2001.885055 
102*2001.885055 102*2000.628352 
102*2000.628352 102*1999.371648 
102*1999.371648 102*1998.114945 
102*1998.114945 102*1996.858242 
102*1996.858242 102*1995.601539 
102*1995.601539 102*1994.344836 
102*1994.344836 102*1993.088132 
102*1993.088132 102*1991.831429 
102*1991.831429 102*1990.574726 
102*1990.574726 102*1989.318023 
102*1989.318023 102*1988.061319 
102*1988.061319 102*1986.804616 
102*1986.804616 102*1985.547913 
102*1985.547913 102*1984.291210 
102*1984.291210 102*1983.034507 
102*1983.034507 102*1981.777803 
102*1981.777803 102*1980.521100 
102*1980.521100 102*1979.264397 
102*1979.264397 102*1978.007694 
102*1978.007694 102*1976.750991 
102*1976.750991 102*1975.494287 
102*1975.494287 102*1974.237584 
102*1974.237584 102*1972.980881 
102*1972.980881 102*1971.724178 
102*1971.724178 102*1970.467475 
102*1970.467475 102*1969.210771 
102*2035.802635 102*2034.545932 
102*2034.545932 102*2033.289229 
102*2033.289229 102*2032.032525 
102*2032.032525 102*2030.775822 
102*2030.775822 102*2029.519119 
102*2029.519119 102*2028.262416 
102*2028.262416 102*2027.005713 
102*2027.005713 102*2025.749009 
102*2025.749009 102*2024.492306 
102*2024.492306 102*2023.235603 
102*2023.235603 102*2021.978900 
102*2021.978900 102*2020.722197 
102*2020.722197 102*2019.465493 
102*2019.465493 102*2018.208790 
102*2018.208790 102*2016.952087 
102*2016.952087 102*2015.695384 
102*2015.695384 102*2014.438681 
102*2014.438681 102*2013.181977 
102*2013.181977 102*2011.925274 
102*2011.925274 102*2010.668571 
102*2010.668571 102*2009.411868 
102*2009.411868 102*2008.155164 
102*2008.155164 102*2006.898461 
102*2006.898461 102*2005.641758 
102*2005.641758 102*2004.385055 
102*2004.385055 102*2003.128352 
102*2003.128352 102*2001.871648 
102*2001.871648 102*2000.614945 
102*2000.614945 102*1999.358242 
102*1999.358242 102*1998.101539 
102*1998.101539 102*1996.844836 
102*1996.844836 102*1995.588132 
102*1995.588132 102*1994.331429 
102*1994.331429 102*1993.074726 
102*1993.074726 102*1991.818023 
102*1991.818023 102*1990.561319 
102*1990.561319 102*1989.304616 
102*1989.304616 102*1988.047913 
102*1988.047913 102*1986.791210 
102*1986.791210 102*1985.534507 
102*1985.534507 102*1984.277803 
102*1984.277803 102*1983.021100 
102*1983.021100 102*1981.764397 
102*1981.764397 102*1980.507694 
102*1980.507694 102*1979.250991 
102*1979.250991 102*1977.994287 
102*1977.994287 102*1976.737584 
102*1976.737584 102*1975.480881 
102*1975.480881 102*1974.224178 
102*1974.224178 102*1972.967475 
102*1972.967475 102*1971.710771 
102*2035.802635 102*2034.545932 
102*2034.545932 102*2033.289229 
102*2033.289229 102*2032.032525 
102*2032.032525 102*2030.775822 
102*2030.775822 102*2029.519119 
102*2029.519119 102*2028.262416 
102*2028.262416 102*2027.005713 
102*2027.005713 102*2025.749009 
102*2025.749009 102*2024.492306 
102*2024.492306 102*2023.235603 
102*2023.235603 102*2021.978900 
102*2021.978900 102*2020.722197 
102*2020.722197 102*2019.465493 
102*2019.465493 102*2018.208790 
102*2018.208790 102*2016.952087 
102*2016.952087 102*2015.695384 
102*2015.695384 102*2014.438681 
102*2014.438681 102*2013.181977 
102*2013.181977 102*2011.925274 
102*2011.925274 102*2010.668571 
102*2010.668571 102*2009.411868 
102*2009.411868 102*2008.155164 
102*2008.155164 102*2006.898461 
102*2006.898461 102*2005.641758 
102*2005.641758 102*2004.385055 
102*2004.385055 102*2003.128352 
102*2003.128352 102*2001.871648 
102*2001.871648 102*2000.614945 
102*2000.614945 102*1999.358242 
102*1999.358242 102*1998.101539 
102*1998.101539 102*1996.844836 
102*1996.844836 102*1995.588132 
102*1995.588132 102*1994.331429 
102*1994.331429 102*1993.074726 
102*1993.074726 102*1991.818023 
102*1991.818023 102*1990.561319 
102*1990.561319 102*1989.304616 
102*1989.304616 102*1988.047913 
102*1988.047913 102*1986.791210 
102*1986.791210 102*1985.534507 
102*1985.534507 102*1984.277803 
102*1984.277803 102*1983.021100 
102*1983.021100 102*1981.764397 
102*1981.764397 102*1980.507694 
102*1980.507694 102*1979.250991 
102*1979.250991 102*1977.994287 
102*1977.994287 102*1976.737584 
102*1976.737584 102*1975.480881 
102*1975.480881 102*1974.224178 
102*1974.224178 102*1972.967475 
102*1972.967475 102*1971.710771 
102*2038.302635 102*2037.045932 
102*2037.045932 102*2035.789229 
102*2035.789229 102*2034.532525 
102*2034.532525 102*2033.275822 
102*2033.275822 102*2032.019119 
102*2032.019119 102*2030.762416 
102*2030.762416 102*2029.505713 
102*2029.505713 102*2028.249009 
102*2028.249009 102*2026.992306 
102*2026.992306 102*2025.735603 
102*2025.735603 102*2024.478900 
102*2024.478900 102*2023.222197 
102*2023.222197 102*2021.965493 
102*2021.965493 102*2020.708790 
102*2020.708790 102*2019.452087 
102*2019.452087 102*2018.195384 
102*2018.195384 102*2016.938681 
102*2016.938681 102*2015.681977 
102*2015.681977 102*2014.425274 
102*2014.425274 102*2013.168571 
102*2013.168571 102*2011.911868 
102*2011.911868 102*2010.655164 
102*2010.655164 102*2009.398461 
102*2009.398461 102*2008.141758 
102*2008.141758 102*2006.885055 
102*2006.885055 102*2005.628352 
102*2005.628352 102*2004.371648 
102*2004.371648 102*2003.114945 
102*2003.114945 102*2001.858242 
102*2001.858242 102*2000.601539 
102*2000.601539 102*1999.344836 
102*1999.344836 102*1998.088132 
102*1998.088132 102*1996.831429 
102*1996.831429 102*1995.574726 
102*1995.574726 102*1994.318023 
102*1994.318023 102*1993.061319 
102*1993.061319 102*1991.804616 
102*1991.804616 102*1990.547913 
102*1990.547913 102*1989.291210 
102*1989.291210 102*1988.034507 
102*1988.034507 102*1986.777803 
102*1986.777803 102*1985.521100 
102*1985.521100 102*1984.264397 
102*1984.264397 102*1983.007694 
102*1983.007694 102*1981.750991 
102*1981.750991 102*1980.494287 
102*1980.494287 102*1979.237584 
102*1979.237584 102*1977.980881 
102*1977.980881 102*1976.724178 
102*1976.724178 102*1975.467475 
102*1975.467475 102*1974.210771 
102*2038.302635 102*2037.045932 
102*2037.045932 102*2035.789229 
102*2035.789229 102*2034.532525 
102*2034.532525 102*2033.275822 
102*2033.275822 102*2032.019119 
102*2032.019119 102*2030.762416 
102*2030.762416 102*2029.505713 
102*2029.505713 102*2028.249009 
102*2028.249009 102*2026.992306 
102*2026.992306 102*2025.735603 
102*2025.735603 102*2024.478900 
102*2024.478900 102*2023.222197 
102*2023.222197 102*2021.965493 
102*2021.965493 102*2020.708790 
102*2020.708790 102*2019.452087 
102*2019.452087 102*2018.195384 
102*2018.195384 102*2016.938681 
102*2016.938681 102*2015.681977 
102*2015.681977 102*2014.425274 
102*2014.425274 102*2013.168571 
102*2013.168571 102*2011.911868 
102*2011.911868 102*2010.655164 
102*2010.655164 102*2009.398461 
102*2009.398461 102*2008.141758 
102*2008.141758 102*2006.885055 
102*2006.885055 102*2005.628352 
102*2005.628352 102*2004.371648 
102*2004.371648 102*2003.114945 
102*2003.114945 102*2001.858242 
102*2001.858242 102*2000.601539 
102*2000.601539 102*1999.344836 
102*1999.344836 102*1998.088132 
102*1998.088132 102*1996.831429 
102*1996.831429 102*1995.574726 
102*1995.574726 102*1994.318023 
102*1994.318023 102*1993.061319 
102*1993.061319 102*1991.804616 
102*1991.804616 102*1990.547913 
102*1990.547913 102*1989.291210 
102*1989.291210 102*1988.034507 
102*1988.034507 102*1986.777803 
102*1986.777803 102*1985.521100 
102*1985.521100 102*1984.264397 
102*1984.264397 102*1983.007694 
102*1983.007694 102*1981.750991 
102*1981.750991 102*1980.494287 
102*1980.494287 102*1979.237584 
102*1979.237584 102*1977.980881 
102*1977.980881 102*1976.724178 
102*1976.724178 102*1975.467475 
102*1975.467475 102*1974.210771 
102*2040.802635 102*2039.545932 
102*2039.545932 102*2038.289229 
102*2038.289229 102*2037.032525 
102*2037.032525 102*2035.775822 
102*2035.775822 102*2034.519119 
102*2034.519119 102*2033.262416 
102*2033.262416 102*2032.005713 
102*2032.005713 102*2030.749009 
102*2030.749009 102*2029.492306 
102*2029.492306 102*2028.235603 
102*2028.235603 102*2026.978900 
102*2026.978900 102*2025.722197 
102*2025.722197 102*2024.465493 
102*2024.465493 102*2023.208790 
102*2023.208790 102*2021.952087 
102*2021.952087 102*2020.695384 
102*2020.695384 102*2019.438681 
102*2019.438681 102*2018.181977 
102*2018.181977 102*2016.925274 
102*2016.925274 102*2015.668571 
102*2015.668571 102*2014.411868 
102*2014.411868 102*2013.155164 
102*2013.155164 102*2011.898461 
102*2011.898461 102*2010.641758 
102*2010.641758 102*2009.385055 
102*2009.385055 102*2008.128352 
102*2008.128352 102*2006.871648 
102*2006.871648 102*2005.614945 
102*2005.614945 102*2004.358242 
102*2004.358242 102*2003.101539 
102*2003.101539 102*2001.844836 
102*2001.844836 102*2000.588132 
102*2000.588132 102*1999.331429 
102*1999.331429 102*1998.074726 
102*1998.074726 102*1996.818023 
102*1996.818023 102*1995.561319 
102*1995.561319 102*1994.304616 
102*1994.304616 102*1993.047913 
102*1993.047913 102*1991.791210 
102*1991.791210 102*1990.534507 
102*1990.534507 102*1989.277803 
102*1989.277803 102*1988.021100 
102*1988.021100 102*1986.764397 
102*1986.764397 102*1985.507694 
102*1985.507694 102*1984.250991 
102*1984.250991 102*1982.994287 
102*1982.994287 102*1981.737584 
102*1981.737584 102*1980.480881 
102*1980.480881 102*1979.224178 
102*1979.224178 102*1977.967475 
102*1977.967475 102*1976.710771 
102*2040.802635 102*2039.545932 
102*2039.545932 102*2038.289229 
102*2038.289229 102*2037.032525 
102*2037.032525 102*2035.775822 
102*2035.775822 102*2034.519119 
102*2034.519119 102*2033.262416 
102*2033.262416 102*2032.005713 
102*2032.005713 102*2030.749009 
102*2030.749009 102*2029.492306 
102*2029.492306 102*2028.235603 
102*2028.235603 102*2026.978900 
102*2026.978900 102*2025.722197 
102*2025.722197 102*2024.465493 
102*2024.465493 102*2023.208790 
102*2023.208790 102*2021.952087 
102*2021.952087 102*2020.695384 
102*2020.695384 102*2019.438681 
102*2019.438681 102*2018.181977 
102*2018.181977 102*2016.925274 
102*2016.925274 102*2015.668571 
102*2015.668571 102*2014.411868 
102*2014.411868 102*2013.155164 
102*2013.155164 102*2011.898461 
102*2011.898461 102*2010.641758 
102*2010.641758 102*2009.385055 
102*2009.385055 102*2008.128352 
102*2008.128352 102*2006.871648 
102*2006.871648 102*2005.614945 
102*2005.614945 102*2004.358242 
102*2004.358242 102*2003.101539 
102*2003.101539 102*2001.844836 
102*2001.844836 102*2000.588132 
102*2000.588132 102*1999.331429 
102*1999.331429 102*1998.074726 
102*1998.074726 102*1996.818023 
102*1996.818023 102*1995.561319 
102*1995.561319 102*1994.304616 
102*1994.304616 102*1993.047913 
102*1993.047913 102*1991.791210 
102*1991.791210 102*1990.534507 
102*1990.534507 102*1989.277803 
102*1989.277803 102*1988.021100 
102*1988.021100 102*1986.764397 
102*1986.764397 102*1985.507694 
102*1985.507694 102*1984.250991 
102*1984.250991 102*1982.994287 
102*1982.994287 102*1981.737584 
102*1981.737584 102*1980.480881 
102*1980.480881 102*1979.224178 
102*1979.224178 102*1977.967475 
102*1977.967475 102*1976.710771 
102*2043.302635 102*2042.045932 
102*2042.045932 102*2040.789229 
102*2040.789229 102*2039.532525 
102*2039.532525 102*2038.275822 
102*2038.275822 102*2037.019119 
102*2037.019119 102*2035.762416 
102*2035.762416 102*2034.505713 
102*2034.505713 102*2033.249009 
102*2033.249009 102*2031.992306 
102*2031.992306 102*2030.735603 
102*2030.735603 102*2029.478900 
102*2029.478900 102*2028.222197 
102*2028.222197 102*2026.965493 
102*2026.965493 102*2025.708790 
102*2025.708790 102*2024.452087 
102*2024.452087 102*2023.195384 
102*2023.195384 102*2021.938681 
102*2021.938681 102*2020.681977 
102*2020.681977 102*2019.425274 
102*2019.425274 102*2018.168571 
102*2018.168571 102*2016.911868 
102*2016.911868 102*2015.655164 
102*2015.655164 102*2014.398461 
102*2014.398461 102*2013.141758 
102*2013.141758 102*2011.885055 
102*2011.885055 102*2010.628352 
102*2010.628352 102*2009.371648 
102*2009.371648 102*2008.114945 
102*2008.114945 102*2006.858242 
102*2006.858242 102*2005.601539 
102*2005.601539 102*2004.344836 
102*2004.344836 102*2003.088132 
102*2003.088132 102*2001.831429 
102*2001.831429 102*2000.574726 
102*2000.574726 102*1999.318023 
102*1999.318023 102*1998.061319 
102*1998.061319 102*1996.804616 
102*1996.804616 102*1995.547913 
102*1995.547913 102*1994.291210 
102*1994.291210 102*1993.034507 
102*1993.034507 102*1991.777803 
102*1991.777803 102*1990.521100 
102*1990.521100 102*1989.264397 
102*1989.264397 102*1988.007694 
102*1988.007694 102*1986.750991 
102*1986.750991 102*1985.494287 
102*1985.494287 102*1984.237584 
102*1984.237584 102*1982.980881 
102*1982.980881 102*1981.724178 
102*1981.724178 102*1980.467475 
102*1980.467475 102*1979.210771 
102*2043.302635 102*2042.045932 
102*2042.045932 102*2040.789229 
102*2040.789229 102*2039.532525 
102*2039.532525 102*2038.275822 
102*2038.275822 102*2037.019119 
102*2037.019119 102*2035.762416 
102*2035.762416 102*2034.505713 
102*2034.505713 102*2033.249009 
102*2033.249009 102*2031.992306 
102*2031.992306 102*2030.735603 
102*2030.735603 102*2029.478900 
102*2029.478900 102*2028.222197 
102*2028.222197 102*2026.965493 
102*2026.965493 102*2025.708790 
102*2025.708790 102*2024.452087 
102*2024.452087 102*2023.195384 
102*2023.195384 102*2021.938681 
102*2021.938681 102*2020.681977 
102*2020.681977 102*2019.425274 
102*2019.425274 102*2018.168571 
102*2018.168571 102*2016.911868 
102*2016.911868 102*2015.655164 
102*2015.655164 102*2014.398461 
102*2014.398461 102*2013.141758 
102*2013.141758 102*2011.885055 
102*2011.885055 102*2010.628352 
102*2010.628352 102*2009.371648 
102*2009.371648 102*2008.114945 
102*2008.114945 102*2006.858242 
102*2006.858242 102*2005.601539 
102*2005.601539 102*2004.344836 
102*2004.344836 102*2003.088132 
102*2003.088132 102*2001.831429 
102*2001.831429 102*2000.574726 
102*2000.574726 102*1999.318023 
102*1999.318023 102*1998.061319 
102*1998.061319 102*1996.804616 
102*1996.804616 102*1995.547913 
102*1995.547913 102*1994.291210 
102*1994.291210 102*1993.034507 
102*1993.034507 102*1991.777803 
102*1991.777803 102*1990.521100 
102*1990.521100 102*1989.264397 
102*1989.264397 102*1988.007694 
102*1988.007694 102*1986.750991 
102*1986.750991 102*1985.494287 
102*1985.494287 102*1984.237584 
102*1984.237584 102*1982.980881 
102*1982.980881 102*1981.724178 
102*1981.724178 102*1980.467475 
102*1980.467475 102*1979.210771 
102*2045.802635 102*2044.545932 
102*2044.545932 102*2043.289229 
102*2043.289229 102*2042.032525 
102*2042.032525 102*2040.775822 
102*2040.775822 102*2039.519119 
102*2039.519119 102*2038.262416 
102*2038.262416 102*2037.005713 
102*2037.005713 102*2035.749009 
102*2035.749009 102*2034.492306 
102*2034.492306 102*2033.235603 
102*2033.235603 102*2031.978900 
102*2031.978900 102*2030.722197 
102*2030.722197 102*2029.465493 
102*2029.465493 102*2028.208790 
102*2028.208790 102*2026.952087 
102*2026.952087 102*2025.695384 
102*2025.695384 102*2024.438681 
102*2024.438681 102*2023.181977 
102*2023.181977 102*2021.925274 
102*2021.925274 102*2020.668571 
102*2020.668571 102*2019.411868 
102*2019.411868 102*2018.155164 
102*2018.155164 102*2016.898461 
102*2016.898461 102*2015.641758 
102*2015.641758 102*2014.385055 
102*2014.385055 102*2013.128352 
102*2013.128352 102*2011.871648 
102*2011.871648 102*2010.614945 
102*2010.614945 102*2009.358242 
102*2009.358242 102*2008.101539 
102*2008.101539 102*2006.844836 
102*2006.844836 102*2005.588132 
102*2005.588132 102*2004.331429 
102*2004.331429 102*2003.074726 
102*2003.074726 102*2001.818023 
102*2001.818023 102*2000.561319 
102*2000.561319 102*1999.304616 
102*1999.304616 102*1998.047913 
102*1998.047913 102*1996.791210 
102*1996.791210 102*1995.534507 
102*1995.534507 102*1994.277803 
102*1994.277803 102*1993.021100 
102*1993.021100 102*1991.764397 
102*1991.764397 102*1990.507694 
102*1990.507694 102*1989.250991 
102*1989.250991 102*1987.994287 
102*1987.994287 102*1986.737584 
102*1986.737584 102*1985.480881 
102*1985.480881 102*1984.224178 
102*1984.224178 102*1982.967475 
102*1982.967475 102*1981.710771 
102*2045.802635 102*2044.545932 
102*2044.545932 102*2043.289229 
102*2043.289229 102*2042.032525 
102*2042.032525 102*2040.775822 
102*2040.775822 102*2039.519119 
102*2039.519119 102*2038.262416 
102*2038.262416 102*2037.005713 
102*2037.005713 102*2035.749009 
102*2035.749009 102*2034.492306 
102*2034.492306 102*2033.235603 
102*2033.235603 102*2031.978900 
102*2031.978900 102*2030.722197 
102*2030.722197 102*2029.465493 
102*2029.465493 102*2028.208790 
102*2028.208790 102*2026.952087 
102*2026.952087 102*2025.695384 
102*2025.695384 102*2024.438681 
102*2024.438681 102*2023.181977 
102*2023.181977 102*2021.925274 
102*2021.925274 102*2020.668571 
102*2020.668571 102*2019.411868 
102*2019.411868 102*2018.155164 
102*2018.155164 102*2016.898461 
102*2016.898461 102*2015.641758 
102*2015.641758 102*2014.385055 
102*2014.385055 102*2013.128352 
102*2013.128352 102*2011.871648 
102*2011.871648 102*2010.614945 
102*2010.614945 102*2009.358242 
102*2009.358242 102*2008.101539 
102*2008.101539 102*2006.844836 
102*2006.844836 102*2005.588132 
102*2005.588132 102*2004.331429 
102*2004.331429 102*2003.074726 
102*2003.074726 102*2001.818023 
102*2001.818023 102*2000.561319 
102*2000.561319 102*1999.304616 
102*1999.304616 102*1998.047913 
102*1998.047913 102*1996.791210 
102*1996.791210 102*1995.534507 
102*1995.534507 102*1994.277803 
102*1994.277803 102*1993.021100 
102*1993.021100 102*1991.764397 
102*1991.764397 102*1990.507694 
102*1990.507694 102*1989.250991 
102*1989.250991 102*1987.994287 
102*1987.994287 102*1986.737584 
102*1986.737584 102*1985.480881 
102*1985.480881 102*1984.224178 
102*1984.224178 102*1982.967475 
102*1982.967475 102*1981.710771 
102*2048.302635 102*2047.045932 
102*2047.045932 102*2045.789229 
102*2045.789229 102*2044.532525 
102*2044.532525 102*2043.275822 
102*2043.275822 102*2042.019119 
102*2042.019119 102*2040.762416 
102*2040.762416 102*2039.505713 
102*2039.505713 102*2038.249009 
102*2038.249009 102*2036.992306 
102*2036.992306 102*2035.735603 
102*2035.735603 102*2034.478900 
102*2034.478900 102*2033.222197 
102*2033.222197 102*2031.965493 
102*2031.965493 102*2030.708790 
102*2030.708790 102*2029.452087 
102*2029.452087 102*2028.195384 
102*2028.195384 102*2026.938681 
102*2026.938681 102*2025.681977 
102*2025.681977 102*2024.425274 
102*2024.425274 102*2023.168571 
102*2023.168571 102*2021.911868 
102*2021.911868 102*2020.655164 
102*2020.655164 102*2019.398461 
102*2019.398461 102*2018.141758 
102*2018.141758 102*2016.885055 
102*2016.885055 102*2015.628352 
102*2015.628352 102*2014.371648 
102*2014.371648 102*2013.114945 
102*2013.114945 102*2011.858242 
102*2011.858242 102*2010.601539 
102*2010.601539 102*2009.344836 
102*2009.344836 102*2008.088132 
102*2008.088132 102*2006.831429 
102*2006.831429 102*2005.574726 
102*2005.574726 102*2004.318023 
102*2004.318023 102*2003.061319 
102*2003.061319 102*2001.804616 
102*2001.804616 102*2000.547913 
102*2000.547913 102*1999.291210 
102*1999.291210 102*1998.034507 
102*1998.034507 102*1996.777803 
102*1996.777803 102*1995.521100 
102*1995.521100 102*1994.264397 
102*1994.264397 102*1993.007694 
102*1993.007694 102*1991.750991 
102*1991.750991 102*1990.494287 
102*1990.494287 102*1989.237584 
102*1989.237584 102*1987.980881 
102*1987.980881 102*1986.724178 
102*1986.724178 102*1985.467475 
102*1985.467475 102*1984.210771 
102*2048.302635 102*2047.045932 
102*2047.045932 102*2045.789229 
102*2045.789229 102*2044.532525 
102*2044.532525 102*2043.275822 
102*2043.275822 102*2042.019119 
102*2042.019119 102*2040.762416 
102*2040.762416 102*2039.505713 
102*2039.505713 102*2038.249009 
102*2038.249009 102*2036.992306 
102*2036.992306 102*2035.735603 
102*2035.735603 102*2034.478900 
102*2034.478900 102*2033.222197 
102*2033.222197 102*2031.965493 
102*2031.965493 102*2030.708790 
102*2030.708790 102*2029.452087 
102*2029.452087 102*2028.195384 
102*2028.195384 102*2026.938681 
102*2026.938681 102*2025.681977 
102*2025.681977 102*2024.425274 
102*2024.425274 102*2023.168571 
102*2023.168571 102*2021.911868 
102*2021.911868 102*2020.655164 
102*2020.655164 102*2019.398461 
102*2019.398461 102*2018.141758 
102*2018.141758 102*2016.885055 
102*2016.885055 102*2015.628352 
102*2015.628352 102*2014.371648 
102*2014.371648 102*2013.114945 
102*2013.114945 102*2011.858242 
102*2011.858242 102*2010.601539 
102*2010.601539 102*2009.344836 
102*2009.344836 102*2008.088132 
102*2008.088132 102*2006.831429 
102*2006.831429 102*2005.574726 
102*2005.574726 102*2004.318023 
102*2004.318023 102*2003.061319 
102*2003.061319 102*2001.804616 
102*2001.804616 102*2000.547913 
102*2000.547913 102*1999.291210 
102*1999.291210 102*1998.034507 
102*1998.034507 102*1996.777803 
102*1996.777803 102*1995.521100 
102*1995.521100 102*1994.264397 
102*1994.264397 102*1993.007694 
102*1993.007694 102*1991.750991 
102*1991.750991 102*1990.494287 
102*1990.494287 102*1989.237584 
102*1989.237584 102*1987.980881 
102*1987.980881 102*1986.724178 
102*1986.724178 102*1985.467475 
102*1985.467475 102*1984.210771 
102*2050.802635 102*2049.545932 
102*2049.545932 102*2048.289229 
102*2048.289229 102*2047.032525 
102*2047.032525 102*2045.775822 
102*2045.775822 102*2044.519119 
102*2044.519119 102*2043.262416 
102*2043.262416 102*2042.005713 
102*2042.005713 102*2040.749009 
102*2040.749009 102*2039.492306 
102*2039.492306 102*2038.235603 
102*2038.235603 102*2036.978900 
102*2036.978900 102*2035.722197 
102*2035.722197 102*2034.465493 
102*2034.465493 102*2033.208790 
102*2033.208790 102*2031.952087 
102*2031.952087 102*2030.695384 
102*2030.695384 102*2029.438681 
102*2029.438681 102*2028.181977 
102*2028.181977 102*2026.925274 
102*2026.925274 102*2025.668571 
102*2025.668571 102*2024.411868 
102*2024.411868 102*2023.155164 
102*2023.155164 102*2021.898461 
102*2021.898461 102*2020.641758 
102*2020.641758 102*2019.385055 
102*2019.385055 102*2018.128352 
102*2018.128352 102*2016.871648 
102*2016.871648 102*2015.614945 
102*2015.614945 102*2014.358242 
102*2014.358242 102*2013.101539 
102*2013.101539 102*2011.844836 
102*2011.844836 102*2010.588132 
102*2010.588132 102*2009.331429 
102*2009.331429 102*2008.074726 
102*2008.074726 102*2006.818023 
102*2006.818023 102*2005.561319 
102*2005.561319 102*2004.304616 
102*2004.304616 102*2003.047913 
102*2003.047913 102*2001.791210 
102*2001.791210 102*2000.534507 
102*2000.534507 102*1999.277803 
102*1999.277803 102*1998.021100 
102*1998.021100 102*1996.764397 
102*1996.764397 102*1995.507694 
102*1995.507694 102*1994.250991 
102*1994.250991 102*1992.994287 
102*1992.994287 102*1991.737584 
102*1991.737584 102*1990.480881 
102*1990.480881 102*1989.224178 
102*1989.224178 102*1987.967475 
102*1987.967475 102*1986.710771 
102*2050.802635 102*2049.545932 
102*2049.545932 102*2048.289229 
102*2048.289229 102*2047.032525 
102*2047.032525 102*2045.775822 
102*2045.775822 102*2044.519119 
102*2044.519119 102*2043.262416 
102*2043.262416 102*2042.005713 
102*2042.005713 102*2040.749009 
102*2040.749009 102*2039.492306 
102*2039.492306 102*2038.235603 
102*2038.235603 102*2036.978900 
102*2036.978900 102*2035.722197 
102*2035.722197 102*2034.465493 
102*2034.465493 102*2033.208790 
102*2033.208790 102*2031.952087 
102*2031.952087 102*2030.695384 
102*2030.695384 102*2029.438681 
102*2029.438681 102*2028.181977 
102*2028.181977 102*2026.925274 
102*2026.925274 102*2025.668571 
102*2025.668571 102*2024.411868 
102*2024.411868 102*2023.155164 
102*2023.155164 102*2021.898461 
102*2021.898461 102*2020.641758 
102*2020.641758 102*2019.385055 
102*2019.385055 102*2018.128352 
102*2018.128352 102*2016.871648 
102*2016.871648 102*2015.614945 
102*2015.614945 102*2014.358242 
102*2014.358242 102*2013.101539 
102*2013.101539 102*2011.844836 
102*2011.844836 102*2010.588132 
102*2010.588132 102*2009.331429 
102*2009.331429 102*2008.074726 
102*2008.074726 102*2006.818023 
102*2006.818023 102*2005.561319 
102*2005.561319 102*2004.304616 
102*2004.304616 102*2003.047913 
102*2003.047913 102*2001.791210 
102*2001.791210 102*2000.534507 
102*2000.534507 102*1999.277803 
102*1999.277803 102*1998.021100 
102*1998.021100 102*1996.764397 
102*1996.764397 102*1995.507694 
102*1995.507694 102*1994.250991 
102*1994.250991 102*1992.994287 
102*1992.994287 102*1991.737584 
102*1991.737584 102*1990.480881 
102*1990.480881 102*1989.224178 
102*1989.224178 102*1987.967475 
102*1987.967475 102*1986.710771 
102*2053.302635 102*2052.045932 
102*2052.045932 102*2050.789229 
102*2050.789229 102*2049.532525 
102*2049.532525 102*2048.275822 
102*2048.275822 102*2047.019119 
102*2047.019119 102*2045.762416 
102*2045.762416 102*2044.505713 
102*2044.505713 102*2043.249009 
102*2043.249009 102*2041.992306 
102*2041.992306 102*2040.735603 
102*2040.735603 102*2039.478900 
102*2039.478900 102*2038.222197 
102*2038.222197 102*2036.965493 
102*2036.965493 102*2035.708790 
102*2035.708790 102*2034.452087 
102*2034.452087 102*2033.195384 
102*2033.195384 102*2031.938681 
102*2031.938681 102*2030.681977 
102*2030.681977 102*2029.425274 
102*2029.425274 102*2028.168571 
102*2028.168571 102*2026.911868 
102*2026.911868 102*2025.655164 
102*2025.655164 102*2024.398461 
102*2024.398461 102*2023.141758 
102*2023.141758 102*2021.885055 
102*2021.885055 102*2020.628352 
102*2020.628352 102*2019.371648 
102*2019.371648 102*2018.114945 
102*2018.114945 102*2016.858242 
102*2016.858242 102*2015.601539 
102*2015.601539 102*2014.344836 
102*2014.344836 102*2013.088132 
102*2013.088132 102*2011.831429 
102*2011.831429 102*2010.574726 
102*2010.574726 102*2009.318023 
102*2009.318023 102*2008.061319 
102*2008.061319 102*2006.804616 
102*2006.804616 102*2005.547913 
102*2005.547913 102*2004.291210 
102*2004.291210 102*2003.034507 
102*2003.034507 102*2001.777803 
102*2001.777803 102*2000.521100 
102*2000.521100 102*1999.264397 
102*1999.264397 102*1998.007694 
102*1998.007694 102*1996.750991 
102*1996.750991 102*1995.494287 
102*1995.494287 102*1994.237584 
102*1994.237584 102*1992.980881 
102*1992.980881 102*1991.724178 
102*1991.724178 102*1990.467475 
102*1990.467475 102*1989.210771 
102*2053.302635 102*2052.045932 
102*2052.045932 102*2050.789229 
102*2050.789229 102*2049.532525 
102*2049.532525 102*2048.275822 
102*2048.275822 102*2047.019119 
102*2047.019119 102*2045.762416 
102*2045.762416 102*2044.505713 
102*2044.505713 102*2043.249009 
102*2043.249009 102*2041.992306 
102*2041.992306 102*2040.735603 
102*2040.735603 102*2039.478900 
102*2039.478900 102*2038.222197 
102*2038.222197 102*2036.965493 
102*2036.965493 102*2035.708790 
102*2035.708790 102*2034.452087 
102*2034.452087 102*2033.195384 
102*2033.195384 102*2031.938681 
102*2031.938681 102*2030.681977 
102*2030.681977 102*2029.425274 
102*2029.425274 102*2028.168571 
102*2028.168571 102*2026.911868 
102*2026.911868 102*2025.655164 
102*2025.655164 102*2024.398461 
102*2024.398461 102*2023.141758 
102*2023.141758 102*2021.885055 
102*2021.885055 102*2020.628352 
102*2020.628352 102*2019.371648 
102*2019.371648 102*2018.114945 
102*2018.114945 102*2016.858242 
102*2016.858242 102*2015.601539 
102*2015.601539 102*2014.344836 
102*2014.344836 102*2013.088132 
102*2013.088132 102*2011.831429 
102*2011.831429 102*2010.574726 
102*2010.574726 102*2009.318023 
102*2009.318023 102*2008.061319 
102*2008.061319 102*2006.804616 
102*2006.804616 102*2005.547913 
102*2005.547913 102*2004.291210 
102*2004.291210 102*2003.034507 
102*2003.034507 102*2001.777803 
102*2001.777803 102*2000.521100 
102*2000.521100 102*1999.264397 
102*1999.264397 102*1998.007694 
102*1998.007694 102*1996.750991 
102*1996.750991 102*1995.494287 
102*1995.494287 102*1994.237584 
102*1994.237584 102*1992.980881 
102*1992.980881 102*1991.724178 
102*1991.724178 102*1990.467475 
102*1990.467475 102*1989.210771 
102*2055.802635 102*2054.545932 
102*2054.545932 102*2053.289229 
102*2053.289229 102*2052.032525 
102*2052.032525 102*2050.775822 
102*2050.775822 102*2049.519119 
102*2049.519119 102*2048.262416 
102*2048.262416 102*2047.005713 
102*2047.005713 102*2045.749009 
102*2045.749009 102*2044.492306 
102*2044.492306 102*2043.235603 
102*2043.235603 102*2041.978900 
102*2041.978900 102*2040.722197 
102*2040.722197 102*2039.465493 
102*2039.465493 102*2038.208790 
102*2038.208790 102*2036.952087 
102*2036.952087 102*2035.695384 
102*2035.695384 102*2034.438681 
102*2034.438681 102*2033.181977 
102*2033.181977 102*2031.925274 
102*2031.925274 102*2030.668571 
102*2030.668571 102*2029.411868 
102*2029.411868 102*2028.155164 
102*2028.155164 102*2026.898461 
102*2026.898461 102*2025.641758 
102*2025.641758 102*2024.385055 
102*2024.385055 102*2023.128352 
102*2023.128352 102*2021.871648 
102*2021.871648 102*2020.614945 
102*2020.614945 102*2019.358242 
102*2019.358242 102*2018.101539 
102*2018.101539 102*2016.844836 
102*2016.844836 102*2015.588132 
102*2015.588132 102*2014.331429 
102*2014.331429 102*2013.074726 
102*2013.074726 102*2011.818023 
102*2011.818023 102*2010.561319 
102*2010.561319 102*2009.304616 
102*2009.304616 102*2008.047913 
102*2008.047913 102*2006.791210 
102*2006.791210 102*2005.534507 
102*2005.534507 102*2004.277803 