ZCORN
102*2127.752211 102*2122.931373 
102*2122.931373 102*2118.110535 
102*2118.110535 102*2113.289697 
102*2113.289697 102*2108.468859 
102*2108.468859 102*2103.648020 
102*2103.648020 102*2098.827182 
102*2098.827182 102*2094.006344 
102*2094.006344 102*2089.185506 
102*2089.185506 102*2084.364668 
102*2084.364668 102*2079.543830 
102*2079.543830 102*2074.722991 
102*2074.722991 102*2069.902153 
102*2069.902153 102*2065.081315 
102*2065.081315 102*2060.260477 
102*2060.260477 102*2055.439639 
102*2055.439639 102*2050.618801 
102*2050.618801 102*2045.797962 
102*2045.797962 102*2040.977124 
102*2040.977124 102*2036.156286 
102*2036.156286 102*2031.335448 
102*2031.335448 102*2026.514610 
102*2026.514610 102*2021.693772 
102*2021.693772 102*2016.872934 
102*2016.872934 102*2012.052095 
102*2012.052095 102*2007.231257 
102*2007.231257 102*2002.410419 
102*2002.410419 102*1997.589581 
102*1997.589581 102*1992.768743 
102*1992.768743 102*1987.947905 
102*1987.947905 102*1983.127066 
102*1983.127066 102*1978.306228 
102*1978.306228 102*1973.485390 
102*1973.485390 102*1968.664552 
102*1968.664552 102*1963.843714 
102*1963.843714 102*1959.022876 
102*1959.022876 102*1954.202038 
102*1954.202038 102*1949.381199 
102*1949.381199 102*1944.560361 
102*1944.560361 102*1939.739523 
102*1939.739523 102*1934.918685 
102*1934.918685 102*1930.097847 
102*1930.097847 102*1925.277009 
102*1925.277009 102*1920.456170 
102*1920.456170 102*1915.635332 
102*1915.635332 102*1910.814494 
102*1910.814494 102*1905.993656 
102*1905.993656 102*1901.172818 
102*1901.172818 102*1896.351980 
102*1896.351980 102*1891.531141 
102*1891.531141 102*1886.710303 
102*1886.710303 102*1881.889465 
102*2130.252211 102*2125.431373 
102*2125.431373 102*2120.610535 
102*2120.610535 102*2115.789697 
102*2115.789697 102*2110.968859 
102*2110.968859 102*2106.148020 
102*2106.148020 102*2101.327182 
102*2101.327182 102*2096.506344 
102*2096.506344 102*2091.685506 
102*2091.685506 102*2086.864668 
102*2086.864668 102*2082.043830 
102*2082.043830 102*2077.222991 
102*2077.222991 102*2072.402153 
102*2072.402153 102*2067.581315 
102*2067.581315 102*2062.760477 
102*2062.760477 102*2057.939639 
102*2057.939639 102*2053.118801 
102*2053.118801 102*2048.297962 
102*2048.297962 102*2043.477124 
102*2043.477124 102*2038.656286 
102*2038.656286 102*2033.835448 
102*2033.835448 102*2029.014610 
102*2029.014610 102*2024.193772 
102*2024.193772 102*2019.372934 
102*2019.372934 102*2014.552095 
102*2014.552095 102*2009.731257 
102*2009.731257 102*2004.910419 
102*2004.910419 102*2000.089581 
102*2000.089581 102*1995.268743 
102*1995.268743 102*1990.447905 
102*1990.447905 102*1985.627066 
102*1985.627066 102*1980.806228 
102*1980.806228 102*1975.985390 
102*1975.985390 102*1971.164552 
102*1971.164552 102*1966.343714 
102*1966.343714 102*1961.522876 
102*1961.522876 102*1956.702038 
102*1956.702038 102*1951.881199 
102*1951.881199 102*1947.060361 
102*1947.060361 102*1942.239523 
102*1942.239523 102*1937.418685 
102*1937.418685 102*1932.597847 
102*1932.597847 102*1927.777009 
102*1927.777009 102*1922.956170 
102*1922.956170 102*1918.135332 
102*1918.135332 102*1913.314494 
102*1913.314494 102*1908.493656 
102*1908.493656 102*1903.672818 
102*1903.672818 102*1898.851980 
102*1898.851980 102*1894.031141 
102*1894.031141 102*1889.210303 
102*1889.210303 102*1884.389465 
102*2130.252211 102*2125.431373 
102*2125.431373 102*2120.610535 
102*2120.610535 102*2115.789697 
102*2115.789697 102*2110.968859 
102*2110.968859 102*2106.148020 
102*2106.148020 102*2101.327182 
102*2101.327182 102*2096.506344 
102*2096.506344 102*2091.685506 
102*2091.685506 102*2086.864668 
102*2086.864668 102*2082.043830 
102*2082.043830 102*2077.222991 
102*2077.222991 102*2072.402153 
102*2072.402153 102*2067.581315 
102*2067.581315 102*2062.760477 
102*2062.760477 102*2057.939639 
102*2057.939639 102*2053.118801 
102*2053.118801 102*2048.297962 
102*2048.297962 102*2043.477124 
102*2043.477124 102*2038.656286 
102*2038.656286 102*2033.835448 
102*2033.835448 102*2029.014610 
102*2029.014610 102*2024.193772 
102*2024.193772 102*2019.372934 
102*2019.372934 102*2014.552095 
102*2014.552095 102*2009.731257 
102*2009.731257 102*2004.910419 
102*2004.910419 102*2000.089581 
102*2000.089581 102*1995.268743 
102*1995.268743 102*1990.447905 
102*1990.447905 102*1985.627066 
102*1985.627066 102*1980.806228 
102*1980.806228 102*1975.985390 
102*1975.985390 102*1971.164552 
102*1971.164552 102*1966.343714 
102*1966.343714 102*1961.522876 
102*1961.522876 102*1956.702038 
102*1956.702038 102*1951.881199 
102*1951.881199 102*1947.060361 
102*1947.060361 102*1942.239523 
102*1942.239523 102*1937.418685 
102*1937.418685 102*1932.597847 
102*1932.597847 102*1927.777009 
102*1927.777009 102*1922.956170 
102*1922.956170 102*1918.135332 
102*1918.135332 102*1913.314494 
102*1913.314494 102*1908.493656 
102*1908.493656 102*1903.672818 
102*1903.672818 102*1898.851980 
102*1898.851980 102*1894.031141 
102*1894.031141 102*1889.210303 
102*1889.210303 102*1884.389465 
102*2132.752211 102*2127.931373 
102*2127.931373 102*2123.110535 
102*2123.110535 102*2118.289697 
102*2118.289697 102*2113.468859 
102*2113.468859 102*2108.648020 
102*2108.648020 102*2103.827182 
102*2103.827182 102*2099.006344 
102*2099.006344 102*2094.185506 
102*2094.185506 102*2089.364668 
102*2089.364668 102*2084.543830 
102*2084.543830 102*2079.722991 
102*2079.722991 102*2074.902153 
102*2074.902153 102*2070.081315 
102*2070.081315 102*2065.260477 
102*2065.260477 102*2060.439639 
102*2060.439639 102*2055.618801 
102*2055.618801 102*2050.797962 
102*2050.797962 102*2045.977124 
102*2045.977124 102*2041.156286 
102*2041.156286 102*2036.335448 
102*2036.335448 102*2031.514610 
102*2031.514610 102*2026.693772 
102*2026.693772 102*2021.872934 
102*2021.872934 102*2017.052095 
102*2017.052095 102*2012.231257 
102*2012.231257 102*2007.410419 
102*2007.410419 102*2002.589581 
102*2002.589581 102*1997.768743 
102*1997.768743 102*1992.947905 
102*1992.947905 102*1988.127066 
102*1988.127066 102*1983.306228 
102*1983.306228 102*1978.485390 
102*1978.485390 102*1973.664552 
102*1973.664552 102*1968.843714 
102*1968.843714 102*1964.022876 
102*1964.022876 102*1959.202038 
102*1959.202038 102*1954.381199 
102*1954.381199 102*1949.560361 
102*1949.560361 102*1944.739523 
102*1944.739523 102*1939.918685 
102*1939.918685 102*1935.097847 
102*1935.097847 102*1930.277009 
102*1930.277009 102*1925.456170 
102*1925.456170 102*1920.635332 
102*1920.635332 102*1915.814494 
102*1915.814494 102*1910.993656 
102*1910.993656 102*1906.172818 
102*1906.172818 102*1901.351980 
102*1901.351980 102*1896.531141 
102*1896.531141 102*1891.710303 
102*1891.710303 102*1886.889465 
102*2132.752211 102*2127.931373 
102*2127.931373 102*2123.110535 
102*2123.110535 102*2118.289697 
102*2118.289697 102*2113.468859 
102*2113.468859 102*2108.648020 
102*2108.648020 102*2103.827182 
102*2103.827182 102*2099.006344 
102*2099.006344 102*2094.185506 
102*2094.185506 102*2089.364668 
102*2089.364668 102*2084.543830 
102*2084.543830 102*2079.722991 
102*2079.722991 102*2074.902153 
102*2074.902153 102*2070.081315 
102*2070.081315 102*2065.260477 
102*2065.260477 102*2060.439639 
102*2060.439639 102*2055.618801 
102*2055.618801 102*2050.797962 
102*2050.797962 102*2045.977124 
102*2045.977124 102*2041.156286 
102*2041.156286 102*2036.335448 
102*2036.335448 102*2031.514610 
102*2031.514610 102*2026.693772 
102*2026.693772 102*2021.872934 
102*2021.872934 102*2017.052095 
102*2017.052095 102*2012.231257 
102*2012.231257 102*2007.410419 
102*2007.410419 102*2002.589581 
102*2002.589581 102*1997.768743 
102*1997.768743 102*1992.947905 
102*1992.947905 102*1988.127066 
102*1988.127066 102*1983.306228 
102*1983.306228 102*1978.485390 
102*1978.485390 102*1973.664552 
102*1973.664552 102*1968.843714 
102*1968.843714 102*1964.022876 
102*1964.022876 102*1959.202038 
102*1959.202038 102*1954.381199 
102*1954.381199 102*1949.560361 
102*1949.560361 102*1944.739523 
102*1944.739523 102*1939.918685 
102*1939.918685 102*1935.097847 
102*1935.097847 102*1930.277009 
102*1930.277009 102*1925.456170 
102*1925.456170 102*1920.635332 
102*1920.635332 102*1915.814494 
102*1915.814494 102*1910.993656 
102*1910.993656 102*1906.172818 
102*1906.172818 102*1901.351980 
102*1901.351980 102*1896.531141 
102*1896.531141 102*1891.710303 
102*1891.710303 102*1886.889465 
102*2135.252211 102*2130.431373 
102*2130.431373 102*2125.610535 
102*2125.610535 102*2120.789697 
102*2120.789697 102*2115.968859 
102*2115.968859 102*2111.148020 
102*2111.148020 102*2106.327182 
102*2106.327182 102*2101.506344 
102*2101.506344 102*2096.685506 
102*2096.685506 102*2091.864668 
102*2091.864668 102*2087.043830 
102*2087.043830 102*2082.222991 
102*2082.222991 102*2077.402153 
102*2077.402153 102*2072.581315 
102*2072.581315 102*2067.760477 
102*2067.760477 102*2062.939639 
102*2062.939639 102*2058.118801 
102*2058.118801 102*2053.297962 
102*2053.297962 102*2048.477124 
102*2048.477124 102*2043.656286 
102*2043.656286 102*2038.835448 
102*2038.835448 102*2034.014610 
102*2034.014610 102*2029.193772 
102*2029.193772 102*2024.372934 
102*2024.372934 102*2019.552095 
102*2019.552095 102*2014.731257 
102*2014.731257 102*2009.910419 
102*2009.910419 102*2005.089581 
102*2005.089581 102*2000.268743 
102*2000.268743 102*1995.447905 
102*1995.447905 102*1990.627066 
102*1990.627066 102*1985.806228 
102*1985.806228 102*1980.985390 
102*1980.985390 102*1976.164552 
102*1976.164552 102*1971.343714 
102*1971.343714 102*1966.522876 
102*1966.522876 102*1961.702038 
102*1961.702038 102*1956.881199 
102*1956.881199 102*1952.060361 
102*1952.060361 102*1947.239523 
102*1947.239523 102*1942.418685 
102*1942.418685 102*1937.597847 
102*1937.597847 102*1932.777009 
102*1932.777009 102*1927.956170 
102*1927.956170 102*1923.135332 
102*1923.135332 102*1918.314494 
102*1918.314494 102*1913.493656 
102*1913.493656 102*1908.672818 
102*1908.672818 102*1903.851980 
102*1903.851980 102*1899.031141 
102*1899.031141 102*1894.210303 
102*1894.210303 102*1889.389465 
102*2135.252211 102*2130.431373 
102*2130.431373 102*2125.610535 
102*2125.610535 102*2120.789697 
102*2120.789697 102*2115.968859 
102*2115.968859 102*2111.148020 
102*2111.148020 102*2106.327182 
102*2106.327182 102*2101.506344 
102*2101.506344 102*2096.685506 
102*2096.685506 102*2091.864668 
102*2091.864668 102*2087.043830 
102*2087.043830 102*2082.222991 
102*2082.222991 102*2077.402153 
102*2077.402153 102*2072.581315 
102*2072.581315 102*2067.760477 
102*2067.760477 102*2062.939639 
102*2062.939639 102*2058.118801 
102*2058.118801 102*2053.297962 
102*2053.297962 102*2048.477124 
102*2048.477124 102*2043.656286 
102*2043.656286 102*2038.835448 
102*2038.835448 102*2034.014610 
102*2034.014610 102*2029.193772 
102*2029.193772 102*2024.372934 
102*2024.372934 102*2019.552095 
102*2019.552095 102*2014.731257 
102*2014.731257 102*2009.910419 
102*2009.910419 102*2005.089581 
102*2005.089581 102*2000.268743 
102*2000.268743 102*1995.447905 
102*1995.447905 102*1990.627066 
102*1990.627066 102*1985.806228 
102*1985.806228 102*1980.985390 
102*1980.985390 102*1976.164552 
102*1976.164552 102*1971.343714 
102*1971.343714 102*1966.522876 
102*1966.522876 102*1961.702038 
102*1961.702038 102*1956.881199 
102*1956.881199 102*1952.060361 
102*1952.060361 102*1947.239523 
102*1947.239523 102*1942.418685 
102*1942.418685 102*1937.597847 
102*1937.597847 102*1932.777009 
102*1932.777009 102*1927.956170 
102*1927.956170 102*1923.135332 
102*1923.135332 102*1918.314494 
102*1918.314494 102*1913.493656 
102*1913.493656 102*1908.672818 
102*1908.672818 102*1903.851980 
102*1903.851980 102*1899.031141 
102*1899.031141 102*1894.210303 
102*1894.210303 102*1889.389465 
102*2137.752211 102*2132.931373 
102*2132.931373 102*2128.110535 
102*2128.110535 102*2123.289697 
102*2123.289697 102*2118.468859 
102*2118.468859 102*2113.648020 
102*2113.648020 102*2108.827182 
102*2108.827182 102*2104.006344 
102*2104.006344 102*2099.185506 
102*2099.185506 102*2094.364668 
102*2094.364668 102*2089.543830 
102*2089.543830 102*2084.722991 
102*2084.722991 102*2079.902153 
102*2079.902153 102*2075.081315 
102*2075.081315 102*2070.260477 
102*2070.260477 102*2065.439639 
102*2065.439639 102*2060.618801 
102*2060.618801 102*2055.797962 
102*2055.797962 102*2050.977124 
102*2050.977124 102*2046.156286 
102*2046.156286 102*2041.335448 
102*2041.335448 102*2036.514610 
102*2036.514610 102*2031.693772 
102*2031.693772 102*2026.872934 
102*2026.872934 102*2022.052095 
102*2022.052095 102*2017.231257 
102*2017.231257 102*2012.410419 
102*2012.410419 102*2007.589581 
102*2007.589581 102*2002.768743 
102*2002.768743 102*1997.947905 
102*1997.947905 102*1993.127066 
102*1993.127066 102*1988.306228 
102*1988.306228 102*1983.485390 
102*1983.485390 102*1978.664552 
102*1978.664552 102*1973.843714 
102*1973.843714 102*1969.022876 
102*1969.022876 102*1964.202038 
102*1964.202038 102*1959.381199 
102*1959.381199 102*1954.560361 
102*1954.560361 102*1949.739523 
102*1949.739523 102*1944.918685 
102*1944.918685 102*1940.097847 
102*1940.097847 102*1935.277009 
102*1935.277009 102*1930.456170 
102*1930.456170 102*1925.635332 
102*1925.635332 102*1920.814494 
102*1920.814494 102*1915.993656 
102*1915.993656 102*1911.172818 
102*1911.172818 102*1906.351980 
102*1906.351980 102*1901.531141 
102*1901.531141 102*1896.710303 
102*1896.710303 102*1891.889465 
102*2137.752211 102*2132.931373 
102*2132.931373 102*2128.110535 
102*2128.110535 102*2123.289697 
102*2123.289697 102*2118.468859 
102*2118.468859 102*2113.648020 
102*2113.648020 102*2108.827182 
102*2108.827182 102*2104.006344 
102*2104.006344 102*2099.185506 
102*2099.185506 102*2094.364668 
102*2094.364668 102*2089.543830 
102*2089.543830 102*2084.722991 
102*2084.722991 102*2079.902153 
102*2079.902153 102*2075.081315 
102*2075.081315 102*2070.260477 
102*2070.260477 102*2065.439639 
102*2065.439639 102*2060.618801 
102*2060.618801 102*2055.797962 
102*2055.797962 102*2050.977124 
102*2050.977124 102*2046.156286 
102*2046.156286 102*2041.335448 
102*2041.335448 102*2036.514610 
102*2036.514610 102*2031.693772 
102*2031.693772 102*2026.872934 
102*2026.872934 102*2022.052095 
102*2022.052095 102*2017.231257 
102*2017.231257 102*2012.410419 
102*2012.410419 102*2007.589581 
102*2007.589581 102*2002.768743 
102*2002.768743 102*1997.947905 
102*1997.947905 102*1993.127066 
102*1993.127066 102*1988.306228 
102*1988.306228 102*1983.485390 
102*1983.485390 102*1978.664552 
102*1978.664552 102*1973.843714 
102*1973.843714 102*1969.022876 
102*1969.022876 102*1964.202038 
102*1964.202038 102*1959.381199 
102*1959.381199 102*1954.560361 
102*1954.560361 102*1949.739523 
102*1949.739523 102*1944.918685 
102*1944.918685 102*1940.097847 
102*1940.097847 102*1935.277009 
102*1935.277009 102*1930.456170 
102*1930.456170 102*1925.635332 
102*1925.635332 102*1920.814494 
102*1920.814494 102*1915.993656 
102*1915.993656 102*1911.172818 
102*1911.172818 102*1906.351980 
102*1906.351980 102*1901.531141 
102*1901.531141 102*1896.710303 
102*1896.710303 102*1891.889465 
102*2140.252211 102*2135.431373 
102*2135.431373 102*2130.610535 
102*2130.610535 102*2125.789697 
102*2125.789697 102*2120.968859 
102*2120.968859 102*2116.148020 
102*2116.148020 102*2111.327182 
102*2111.327182 102*2106.506344 
102*2106.506344 102*2101.685506 
102*2101.685506 102*2096.864668 
102*2096.864668 102*2092.043830 
102*2092.043830 102*2087.222991 
102*2087.222991 102*2082.402153 
102*2082.402153 102*2077.581315 
102*2077.581315 102*2072.760477 
102*2072.760477 102*2067.939639 
102*2067.939639 102*2063.118801 
102*2063.118801 102*2058.297962 
102*2058.297962 102*2053.477124 
102*2053.477124 102*2048.656286 
102*2048.656286 102*2043.835448 
102*2043.835448 102*2039.014610 
102*2039.014610 102*2034.193772 
102*2034.193772 102*2029.372934 
102*2029.372934 102*2024.552095 
102*2024.552095 102*2019.731257 
102*2019.731257 102*2014.910419 
102*2014.910419 102*2010.089581 
102*2010.089581 102*2005.268743 
102*2005.268743 102*2000.447905 
102*2000.447905 102*1995.627066 
102*1995.627066 102*1990.806228 
102*1990.806228 102*1985.985390 
102*1985.985390 102*1981.164552 
102*1981.164552 102*1976.343714 
102*1976.343714 102*1971.522876 
102*1971.522876 102*1966.702038 
102*1966.702038 102*1961.881199 
102*1961.881199 102*1957.060361 
102*1957.060361 102*1952.239523 
102*1952.239523 102*1947.418685 
102*1947.418685 102*1942.597847 
102*1942.597847 102*1937.777009 
102*1937.777009 102*1932.956170 
102*1932.956170 102*1928.135332 
102*1928.135332 102*1923.314494 
102*1923.314494 102*1918.493656 
102*1918.493656 102*1913.672818 
102*1913.672818 102*1908.851980 
102*1908.851980 102*1904.031141 
102*1904.031141 102*1899.210303 
102*1899.210303 102*1894.389465 
102*2140.252211 102*2135.431373 
102*2135.431373 102*2130.610535 
102*2130.610535 102*2125.789697 
102*2125.789697 102*2120.968859 
102*2120.968859 102*2116.148020 
102*2116.148020 102*2111.327182 
102*2111.327182 102*2106.506344 
102*2106.506344 102*2101.685506 
102*2101.685506 102*2096.864668 
102*2096.864668 102*2092.043830 
102*2092.043830 102*2087.222991 
102*2087.222991 102*2082.402153 
102*2082.402153 102*2077.581315 
102*2077.581315 102*2072.760477 
102*2072.760477 102*2067.939639 
102*2067.939639 102*2063.118801 
102*2063.118801 102*2058.297962 
102*2058.297962 102*2053.477124 
102*2053.477124 102*2048.656286 
102*2048.656286 102*2043.835448 
102*2043.835448 102*2039.014610 
102*2039.014610 102*2034.193772 
102*2034.193772 102*2029.372934 
102*2029.372934 102*2024.552095 
102*2024.552095 102*2019.731257 
102*2019.731257 102*2014.910419 
102*2014.910419 102*2010.089581 
102*2010.089581 102*2005.268743 
102*2005.268743 102*2000.447905 
102*2000.447905 102*1995.627066 
102*1995.627066 102*1990.806228 
102*1990.806228 102*1985.985390 
102*1985.985390 102*1981.164552 
102*1981.164552 102*1976.343714 
102*1976.343714 102*1971.522876 
102*1971.522876 102*1966.702038 
102*1966.702038 102*1961.881199 
102*1961.881199 102*1957.060361 
102*1957.060361 102*1952.239523 
102*1952.239523 102*1947.418685 
102*1947.418685 102*1942.597847 
102*1942.597847 102*1937.777009 
102*1937.777009 102*1932.956170 
102*1932.956170 102*1928.135332 
102*1928.135332 102*1923.314494 
102*1923.314494 102*1918.493656 
102*1918.493656 102*1913.672818 
102*1913.672818 102*1908.851980 
102*1908.851980 102*1904.031141 
102*1904.031141 102*1899.210303 
102*1899.210303 102*1894.389465 
102*2142.752211 102*2137.931373 
102*2137.931373 102*2133.110535 
102*2133.110535 102*2128.289697 
102*2128.289697 102*2123.468859 
102*2123.468859 102*2118.648020 
102*2118.648020 102*2113.827182 
102*2113.827182 102*2109.006344 
102*2109.006344 102*2104.185506 
102*2104.185506 102*2099.364668 
102*2099.364668 102*2094.543830 
102*2094.543830 102*2089.722991 
102*2089.722991 102*2084.902153 
102*2084.902153 102*2080.081315 
102*2080.081315 102*2075.260477 
102*2075.260477 102*2070.439639 
102*2070.439639 102*2065.618801 
102*2065.618801 102*2060.797962 
102*2060.797962 102*2055.977124 
102*2055.977124 102*2051.156286 
102*2051.156286 102*2046.335448 
102*2046.335448 102*2041.514610 
102*2041.514610 102*2036.693772 
102*2036.693772 102*2031.872934 
102*2031.872934 102*2027.052095 
102*2027.052095 102*2022.231257 
102*2022.231257 102*2017.410419 
102*2017.410419 102*2012.589581 
102*2012.589581 102*2007.768743 
102*2007.768743 102*2002.947905 
102*2002.947905 102*1998.127066 
102*1998.127066 102*1993.306228 
102*1993.306228 102*1988.485390 
102*1988.485390 102*1983.664552 
102*1983.664552 102*1978.843714 
102*1978.843714 102*1974.022876 
102*1974.022876 102*1969.202038 
102*1969.202038 102*1964.381199 
102*1964.381199 102*1959.560361 
102*1959.560361 102*1954.739523 
102*1954.739523 102*1949.918685 
102*1949.918685 102*1945.097847 
102*1945.097847 102*1940.277009 
102*1940.277009 102*1935.456170 
102*1935.456170 102*1930.635332 
102*1930.635332 102*1925.814494 
102*1925.814494 102*1920.993656 
102*1920.993656 102*1916.172818 
102*1916.172818 102*1911.351980 
102*1911.351980 102*1906.531141 
102*1906.531141 102*1901.710303 
102*1901.710303 102*1896.889465 
102*2142.752211 102*2137.931373 
102*2137.931373 102*2133.110535 
102*2133.110535 102*2128.289697 
102*2128.289697 102*2123.468859 
102*2123.468859 102*2118.648020 
102*2118.648020 102*2113.827182 
102*2113.827182 102*2109.006344 
102*2109.006344 102*2104.185506 
102*2104.185506 102*2099.364668 
102*2099.364668 102*2094.543830 
102*2094.543830 102*2089.722991 
102*2089.722991 102*2084.902153 
102*2084.902153 102*2080.081315 
102*2080.081315 102*2075.260477 
102*2075.260477 102*2070.439639 
102*2070.439639 102*2065.618801 
102*2065.618801 102*2060.797962 
102*2060.797962 102*2055.977124 
102*2055.977124 102*2051.156286 
102*2051.156286 102*2046.335448 
102*2046.335448 102*2041.514610 
102*2041.514610 102*2036.693772 
102*2036.693772 102*2031.872934 
102*2031.872934 102*2027.052095 
102*2027.052095 102*2022.231257 
102*2022.231257 102*2017.410419 
102*2017.410419 102*2012.589581 
102*2012.589581 102*2007.768743 
102*2007.768743 102*2002.947905 
102*2002.947905 102*1998.127066 
102*1998.127066 102*1993.306228 
102*1993.306228 102*1988.485390 
102*1988.485390 102*1983.664552 
102*1983.664552 102*1978.843714 
102*1978.843714 102*1974.022876 
102*1974.022876 102*1969.202038 
102*1969.202038 102*1964.381199 
102*1964.381199 102*1959.560361 
102*1959.560361 102*1954.739523 
102*1954.739523 102*1949.918685 
102*1949.918685 102*1945.097847 
102*1945.097847 102*1940.277009 
102*1940.277009 102*1935.456170 
102*1935.456170 102*1930.635332 
102*1930.635332 102*1925.814494 
102*1925.814494 102*1920.993656 
102*1920.993656 102*1916.172818 
102*1916.172818 102*1911.351980 
102*1911.351980 102*1906.531141 
102*1906.531141 102*1901.710303 
102*1901.710303 102*1896.889465 
102*2145.252211 102*2140.431373 
102*2140.431373 102*2135.610535 
102*2135.610535 102*2130.789697 
102*2130.789697 102*2125.968859 
102*2125.968859 102*2121.148020 
102*2121.148020 102*2116.327182 
102*2116.327182 102*2111.506344 
102*2111.506344 102*2106.685506 
102*2106.685506 102*2101.864668 
102*2101.864668 102*2097.043830 
102*2097.043830 102*2092.222991 
102*2092.222991 102*2087.402153 
102*2087.402153 102*2082.581315 
102*2082.581315 102*2077.760477 
102*2077.760477 102*2072.939639 
102*2072.939639 102*2068.118801 
102*2068.118801 102*2063.297962 
102*2063.297962 102*2058.477124 
102*2058.477124 102*2053.656286 
102*2053.656286 102*2048.835448 
102*2048.835448 102*2044.014610 
102*2044.014610 102*2039.193772 
102*2039.193772 102*2034.372934 
102*2034.372934 102*2029.552095 
102*2029.552095 102*2024.731257 
102*2024.731257 102*2019.910419 
102*2019.910419 102*2015.089581 
102*2015.089581 102*2010.268743 
102*2010.268743 102*2005.447905 
102*2005.447905 102*2000.627066 
102*2000.627066 102*1995.806228 
102*1995.806228 102*1990.985390 
102*1990.985390 102*1986.164552 
102*1986.164552 102*1981.343714 
102*1981.343714 102*1976.522876 
102*1976.522876 102*1971.702038 
102*1971.702038 102*1966.881199 
102*1966.881199 102*1962.060361 
102*1962.060361 102*1957.239523 
102*1957.239523 102*1952.418685 
102*1952.418685 102*1947.597847 
102*1947.597847 102*1942.777009 
102*1942.777009 102*1937.956170 
102*1937.956170 102*1933.135332 
102*1933.135332 102*1928.314494 
102*1928.314494 102*1923.493656 
102*1923.493656 102*1918.672818 
102*1918.672818 102*1913.851980 
102*1913.851980 102*1909.031141 
102*1909.031141 102*1904.210303 
102*1904.210303 102*1899.389465 
102*2145.252211 102*2140.431373 
102*2140.431373 102*2135.610535 
102*2135.610535 102*2130.789697 
102*2130.789697 102*2125.968859 
102*2125.968859 102*2121.148020 
102*2121.148020 102*2116.327182 
102*2116.327182 102*2111.506344 
102*2111.506344 102*2106.685506 
102*2106.685506 102*2101.864668 
102*2101.864668 102*2097.043830 
102*2097.043830 102*2092.222991 
102*2092.222991 102*2087.402153 
102*2087.402153 102*2082.581315 
102*2082.581315 102*2077.760477 
102*2077.760477 102*2072.939639 
102*2072.939639 102*2068.118801 
102*2068.118801 102*2063.297962 
102*2063.297962 102*2058.477124 
102*2058.477124 102*2053.656286 
102*2053.656286 102*2048.835448 
102*2048.835448 102*2044.014610 
102*2044.014610 102*2039.193772 
102*2039.193772 102*2034.372934 
102*2034.372934 102*2029.552095 
102*2029.552095 102*2024.731257 
102*2024.731257 102*2019.910419 
102*2019.910419 102*2015.089581 
102*2015.089581 102*2010.268743 
102*2010.268743 102*2005.447905 
102*2005.447905 102*2000.627066 
102*2000.627066 102*1995.806228 
102*1995.806228 102*1990.985390 
102*1990.985390 102*1986.164552 
102*1986.164552 102*1981.343714 
102*1981.343714 102*1976.522876 
102*1976.522876 102*1971.702038 
102*1971.702038 102*1966.881199 
102*1966.881199 102*1962.060361 
102*1962.060361 102*1957.239523 
102*1957.239523 102*1952.418685 
102*1952.418685 102*1947.597847 
102*1947.597847 102*1942.777009 
102*1942.777009 102*1937.956170 
102*1937.956170 102*1933.135332 
102*1933.135332 102*1928.314494 
102*1928.314494 102*1923.493656 
102*1923.493656 102*1918.672818 
102*1918.672818 102*1913.851980 
102*1913.851980 102*1909.031141 
102*1909.031141 102*1904.210303 
102*1904.210303 102*1899.389465 
102*2147.752211 102*2142.931373 
102*2142.931373 102*2138.110535 
102*2138.110535 102*2133.289697 
102*2133.289697 102*2128.468859 
102*2128.468859 102*2123.648020 
102*2123.648020 102*2118.827182 
102*2118.827182 102*2114.006344 
102*2114.006344 102*2109.185506 
102*2109.185506 102*2104.364668 
102*2104.364668 102*2099.543830 
102*2099.543830 102*2094.722991 
102*2094.722991 102*2089.902153 
102*2089.902153 102*2085.081315 
102*2085.081315 102*2080.260477 
102*2080.260477 102*2075.439639 
102*2075.439639 102*2070.618801 
102*2070.618801 102*2065.797962 
102*2065.797962 102*2060.977124 
102*2060.977124 102*2056.156286 
102*2056.156286 102*2051.335448 
102*2051.335448 102*2046.514610 
102*2046.514610 102*2041.693772 
102*2041.693772 102*2036.872934 
102*2036.872934 102*2032.052095 
102*2032.052095 102*2027.231257 
102*2027.231257 102*2022.410419 
102*2022.410419 102*2017.589581 
102*2017.589581 102*2012.768743 
102*2012.768743 102*2007.947905 
102*2007.947905 102*2003.127066 
102*2003.127066 102*1998.306228 
102*1998.306228 102*1993.485390 
102*1993.485390 102*1988.664552 
102*1988.664552 102*1983.843714 
102*1983.843714 102*1979.022876 
102*1979.022876 102*1974.202038 
102*1974.202038 102*1969.381199 
102*1969.381199 102*1964.560361 
102*1964.560361 102*1959.739523 
102*1959.739523 102*1954.918685 
102*1954.918685 102*1950.097847 
102*1950.097847 102*1945.277009 
102*1945.277009 102*1940.456170 
102*1940.456170 102*1935.635332 
102*1935.635332 102*1930.814494 
102*1930.814494 102*1925.993656 
102*1925.993656 102*1921.172818 
102*1921.172818 102*1916.351980 
102*1916.351980 102*1911.531141 
102*1911.531141 102*1906.710303 
102*1906.710303 102*1901.889465 
102*2147.752211 102*2142.931373 
102*2142.931373 102*2138.110535 
102*2138.110535 102*2133.289697 
102*2133.289697 102*2128.468859 
102*2128.468859 102*2123.648020 
102*2123.648020 102*2118.827182 
102*2118.827182 102*2114.006344 
102*2114.006344 102*2109.185506 
102*2109.185506 102*2104.364668 
102*2104.364668 102*2099.543830 
102*2099.543830 102*2094.722991 
102*2094.722991 102*2089.902153 
102*2089.902153 102*2085.081315 
102*2085.081315 102*2080.260477 
102*2080.260477 102*2075.439639 
102*2075.439639 102*2070.618801 
102*2070.618801 102*2065.797962 
102*2065.797962 102*2060.977124 
102*2060.977124 102*2056.156286 
102*2056.156286 102*2051.335448 
102*2051.335448 102*2046.514610 
102*2046.514610 102*2041.693772 
102*2041.693772 102*2036.872934 
102*2036.872934 102*2032.052095 
102*2032.052095 102*2027.231257 
102*2027.231257 102*2022.410419 
102*2022.410419 102*2017.589581 
102*2017.589581 102*2012.768743 
102*2012.768743 102*2007.947905 
102*2007.947905 102*2003.127066 
102*2003.127066 102*1998.306228 
102*1998.306228 102*1993.485390 
102*1993.485390 102*1988.664552 
102*1988.664552 102*1983.843714 
102*1983.843714 102*1979.022876 
102*1979.022876 102*1974.202038 
102*1974.202038 102*1969.381199 
102*1969.381199 102*1964.560361 
102*1964.560361 102*1959.739523 
102*1959.739523 102*1954.918685 
102*1954.918685 102*1950.097847 
102*1950.097847 102*1945.277009 
102*1945.277009 102*1940.456170 
102*1940.456170 102*1935.635332 
102*1935.635332 102*1930.814494 
102*1930.814494 102*1925.993656 
102*1925.993656 102*1921.172818 
102*1921.172818 102*1916.351980 
102*1916.351980 102*1911.531141 
102*1911.531141 102*1906.710303 
102*1906.710303 102*1901.889465 
102*2150.252211 102*2145.431373 
102*2145.431373 102*2140.610535 
102*2140.610535 102*2135.789697 
102*2135.789697 102*2130.968859 
102*2130.968859 102*2126.148020 
102*2126.148020 102*2121.327182 
102*2121.327182 102*2116.506344 
102*2116.506344 102*2111.685506 
102*2111.685506 102*2106.864668 
102*2106.864668 102*2102.043830 
102*2102.043830 102*2097.222991 
102*2097.222991 102*2092.402153 
102*2092.402153 102*2087.581315 
102*2087.581315 102*2082.760477 
102*2082.760477 102*2077.939639 
102*2077.939639 102*2073.118801 
102*2073.118801 102*2068.297962 
102*2068.297962 102*2063.477124 
102*2063.477124 102*2058.656286 
102*2058.656286 102*2053.835448 
102*2053.835448 102*2049.014610 
102*2049.014610 102*2044.193772 
102*2044.193772 102*2039.372934 
102*2039.372934 102*2034.552095 
102*2034.552095 102*2029.731257 
102*2029.731257 102*2024.910419 
102*2024.910419 102*2020.089581 
102*2020.089581 102*2015.268743 
102*2015.268743 102*2010.447905 
102*2010.447905 102*2005.627066 
102*2005.627066 102*2000.806228 
102*2000.806228 102*1995.985390 
102*1995.985390 102*1991.164552 
102*1991.164552 102*1986.343714 
102*1986.343714 102*1981.522876 
102*1981.522876 102*1976.702038 
102*1976.702038 102*1971.881199 
102*1971.881199 102*1967.060361 
102*1967.060361 102*1962.239523 
102*1962.239523 102*1957.418685 
102*1957.418685 102*1952.597847 