ZCORN
102*2097.171089 102*2093.504255 
102*2093.504255 102*2089.837422 
102*2089.837422 102*2086.170588 
102*2086.170588 102*2082.503755 
102*2082.503755 102*2078.836921 
102*2078.836921 102*2075.170088 
102*2075.170088 102*2071.503254 
102*2071.503254 102*2067.836420 
102*2067.836420 102*2064.169587 
102*2064.169587 102*2060.502753 
102*2060.502753 102*2056.835920 
102*2056.835920 102*2053.169086 
102*2053.169086 102*2049.502253 
102*2049.502253 102*2045.835419 
102*2045.835419 102*2042.168586 
102*2042.168586 102*2038.501752 
102*2038.501752 102*2034.834919 
102*2034.834919 102*2031.168085 
102*2031.168085 102*2027.501252 
102*2027.501252 102*2023.834418 
102*2023.834418 102*2020.167584 
102*2020.167584 102*2016.500751 
102*2016.500751 102*2012.833917 
102*2012.833917 102*2009.167084 
102*2009.167084 102*2005.500250 
102*2005.500250 102*2001.833417 
102*2001.833417 102*1998.166583 
102*1998.166583 102*1994.499750 
102*1994.499750 102*1990.832916 
102*1990.832916 102*1987.166083 
102*1987.166083 102*1983.499249 
102*1983.499249 102*1979.832416 
102*1979.832416 102*1976.165582 
102*1976.165582 102*1972.498748 
102*1972.498748 102*1968.831915 
102*1968.831915 102*1965.165081 
102*1965.165081 102*1961.498248 
102*1961.498248 102*1957.831414 
102*1957.831414 102*1954.164581 
102*1954.164581 102*1950.497747 
102*1950.497747 102*1946.830914 
102*1946.830914 102*1943.164080 
102*1943.164080 102*1939.497247 
102*1939.497247 102*1935.830413 
102*1935.830413 102*1932.163580 
102*1932.163580 102*1928.496746 
102*1928.496746 102*1924.829912 
102*1924.829912 102*1921.163079 
102*1921.163079 102*1917.496245 
102*1917.496245 102*1913.829412 
102*1913.829412 102*1910.162578 
102*2099.671089 102*2096.004255 
102*2096.004255 102*2092.337422 
102*2092.337422 102*2088.670588 
102*2088.670588 102*2085.003755 
102*2085.003755 102*2081.336921 
102*2081.336921 102*2077.670088 
102*2077.670088 102*2074.003254 
102*2074.003254 102*2070.336420 
102*2070.336420 102*2066.669587 
102*2066.669587 102*2063.002753 
102*2063.002753 102*2059.335920 
102*2059.335920 102*2055.669086 
102*2055.669086 102*2052.002253 
102*2052.002253 102*2048.335419 
102*2048.335419 102*2044.668586 
102*2044.668586 102*2041.001752 
102*2041.001752 102*2037.334919 
102*2037.334919 102*2033.668085 
102*2033.668085 102*2030.001252 
102*2030.001252 102*2026.334418 
102*2026.334418 102*2022.667584 
102*2022.667584 102*2019.000751 
102*2019.000751 102*2015.333917 
102*2015.333917 102*2011.667084 
102*2011.667084 102*2008.000250 
102*2008.000250 102*2004.333417 
102*2004.333417 102*2000.666583 
102*2000.666583 102*1996.999750 
102*1996.999750 102*1993.332916 
102*1993.332916 102*1989.666083 
102*1989.666083 102*1985.999249 
102*1985.999249 102*1982.332416 
102*1982.332416 102*1978.665582 
102*1978.665582 102*1974.998748 
102*1974.998748 102*1971.331915 
102*1971.331915 102*1967.665081 
102*1967.665081 102*1963.998248 
102*1963.998248 102*1960.331414 
102*1960.331414 102*1956.664581 
102*1956.664581 102*1952.997747 
102*1952.997747 102*1949.330914 
102*1949.330914 102*1945.664080 
102*1945.664080 102*1941.997247 
102*1941.997247 102*1938.330413 
102*1938.330413 102*1934.663580 
102*1934.663580 102*1930.996746 
102*1930.996746 102*1927.329912 
102*1927.329912 102*1923.663079 
102*1923.663079 102*1919.996245 
102*1919.996245 102*1916.329412 
102*1916.329412 102*1912.662578 
102*2099.671089 102*2096.004255 
102*2096.004255 102*2092.337422 
102*2092.337422 102*2088.670588 
102*2088.670588 102*2085.003755 
102*2085.003755 102*2081.336921 
102*2081.336921 102*2077.670088 
102*2077.670088 102*2074.003254 
102*2074.003254 102*2070.336420 
102*2070.336420 102*2066.669587 
102*2066.669587 102*2063.002753 
102*2063.002753 102*2059.335920 
102*2059.335920 102*2055.669086 
102*2055.669086 102*2052.002253 
102*2052.002253 102*2048.335419 
102*2048.335419 102*2044.668586 
102*2044.668586 102*2041.001752 
102*2041.001752 102*2037.334919 
102*2037.334919 102*2033.668085 
102*2033.668085 102*2030.001252 
102*2030.001252 102*2026.334418 
102*2026.334418 102*2022.667584 
102*2022.667584 102*2019.000751 
102*2019.000751 102*2015.333917 
102*2015.333917 102*2011.667084 
102*2011.667084 102*2008.000250 
102*2008.000250 102*2004.333417 
102*2004.333417 102*2000.666583 
102*2000.666583 102*1996.999750 
102*1996.999750 102*1993.332916 
102*1993.332916 102*1989.666083 
102*1989.666083 102*1985.999249 
102*1985.999249 102*1982.332416 
102*1982.332416 102*1978.665582 
102*1978.665582 102*1974.998748 
102*1974.998748 102*1971.331915 
102*1971.331915 102*1967.665081 
102*1967.665081 102*1963.998248 
102*1963.998248 102*1960.331414 
102*1960.331414 102*1956.664581 
102*1956.664581 102*1952.997747 
102*1952.997747 102*1949.330914 
102*1949.330914 102*1945.664080 
102*1945.664080 102*1941.997247 
102*1941.997247 102*1938.330413 
102*1938.330413 102*1934.663580 
102*1934.663580 102*1930.996746 
102*1930.996746 102*1927.329912 
102*1927.329912 102*1923.663079 
102*1923.663079 102*1919.996245 
102*1919.996245 102*1916.329412 
102*1916.329412 102*1912.662578 
102*2102.171089 102*2098.504255 
102*2098.504255 102*2094.837422 
102*2094.837422 102*2091.170588 
102*2091.170588 102*2087.503755 
102*2087.503755 102*2083.836921 
102*2083.836921 102*2080.170088 
102*2080.170088 102*2076.503254 
102*2076.503254 102*2072.836420 
102*2072.836420 102*2069.169587 
102*2069.169587 102*2065.502753 
102*2065.502753 102*2061.835920 
102*2061.835920 102*2058.169086 
102*2058.169086 102*2054.502253 
102*2054.502253 102*2050.835419 
102*2050.835419 102*2047.168586 
102*2047.168586 102*2043.501752 
102*2043.501752 102*2039.834919 
102*2039.834919 102*2036.168085 
102*2036.168085 102*2032.501252 
102*2032.501252 102*2028.834418 
102*2028.834418 102*2025.167584 
102*2025.167584 102*2021.500751 
102*2021.500751 102*2017.833917 
102*2017.833917 102*2014.167084 
102*2014.167084 102*2010.500250 
102*2010.500250 102*2006.833417 
102*2006.833417 102*2003.166583 
102*2003.166583 102*1999.499750 
102*1999.499750 102*1995.832916 
102*1995.832916 102*1992.166083 
102*1992.166083 102*1988.499249 
102*1988.499249 102*1984.832416 
102*1984.832416 102*1981.165582 
102*1981.165582 102*1977.498748 
102*1977.498748 102*1973.831915 
102*1973.831915 102*1970.165081 
102*1970.165081 102*1966.498248 
102*1966.498248 102*1962.831414 
102*1962.831414 102*1959.164581 
102*1959.164581 102*1955.497747 
102*1955.497747 102*1951.830914 
102*1951.830914 102*1948.164080 
102*1948.164080 102*1944.497247 
102*1944.497247 102*1940.830413 
102*1940.830413 102*1937.163580 
102*1937.163580 102*1933.496746 
102*1933.496746 102*1929.829912 
102*1929.829912 102*1926.163079 
102*1926.163079 102*1922.496245 
102*1922.496245 102*1918.829412 
102*1918.829412 102*1915.162578 
102*2102.171089 102*2098.504255 
102*2098.504255 102*2094.837422 
102*2094.837422 102*2091.170588 
102*2091.170588 102*2087.503755 
102*2087.503755 102*2083.836921 
102*2083.836921 102*2080.170088 
102*2080.170088 102*2076.503254 
102*2076.503254 102*2072.836420 
102*2072.836420 102*2069.169587 
102*2069.169587 102*2065.502753 
102*2065.502753 102*2061.835920 
102*2061.835920 102*2058.169086 
102*2058.169086 102*2054.502253 
102*2054.502253 102*2050.835419 
102*2050.835419 102*2047.168586 
102*2047.168586 102*2043.501752 
102*2043.501752 102*2039.834919 
102*2039.834919 102*2036.168085 
102*2036.168085 102*2032.501252 
102*2032.501252 102*2028.834418 
102*2028.834418 102*2025.167584 
102*2025.167584 102*2021.500751 
102*2021.500751 102*2017.833917 
102*2017.833917 102*2014.167084 
102*2014.167084 102*2010.500250 
102*2010.500250 102*2006.833417 
102*2006.833417 102*2003.166583 
102*2003.166583 102*1999.499750 
102*1999.499750 102*1995.832916 
102*1995.832916 102*1992.166083 
102*1992.166083 102*1988.499249 
102*1988.499249 102*1984.832416 
102*1984.832416 102*1981.165582 
102*1981.165582 102*1977.498748 
102*1977.498748 102*1973.831915 
102*1973.831915 102*1970.165081 
102*1970.165081 102*1966.498248 
102*1966.498248 102*1962.831414 
102*1962.831414 102*1959.164581 
102*1959.164581 102*1955.497747 
102*1955.497747 102*1951.830914 
102*1951.830914 102*1948.164080 
102*1948.164080 102*1944.497247 
102*1944.497247 102*1940.830413 
102*1940.830413 102*1937.163580 
102*1937.163580 102*1933.496746 
102*1933.496746 102*1929.829912 
102*1929.829912 102*1926.163079 
102*1926.163079 102*1922.496245 
102*1922.496245 102*1918.829412 
102*1918.829412 102*1915.162578 
102*2104.671089 102*2101.004255 
102*2101.004255 102*2097.337422 
102*2097.337422 102*2093.670588 
102*2093.670588 102*2090.003755 
102*2090.003755 102*2086.336921 
102*2086.336921 102*2082.670088 
102*2082.670088 102*2079.003254 
102*2079.003254 102*2075.336420 
102*2075.336420 102*2071.669587 
102*2071.669587 102*2068.002753 
102*2068.002753 102*2064.335920 
102*2064.335920 102*2060.669086 
102*2060.669086 102*2057.002253 
102*2057.002253 102*2053.335419 
102*2053.335419 102*2049.668586 
102*2049.668586 102*2046.001752 
102*2046.001752 102*2042.334919 
102*2042.334919 102*2038.668085 
102*2038.668085 102*2035.001252 
102*2035.001252 102*2031.334418 
102*2031.334418 102*2027.667584 
102*2027.667584 102*2024.000751 
102*2024.000751 102*2020.333917 
102*2020.333917 102*2016.667084 
102*2016.667084 102*2013.000250 
102*2013.000250 102*2009.333417 
102*2009.333417 102*2005.666583 
102*2005.666583 102*2001.999750 
102*2001.999750 102*1998.332916 
102*1998.332916 102*1994.666083 
102*1994.666083 102*1990.999249 
102*1990.999249 102*1987.332416 
102*1987.332416 102*1983.665582 
102*1983.665582 102*1979.998748 
102*1979.998748 102*1976.331915 
102*1976.331915 102*1972.665081 
102*1972.665081 102*1968.998248 
102*1968.998248 102*1965.331414 
102*1965.331414 102*1961.664581 
102*1961.664581 102*1957.997747 
102*1957.997747 102*1954.330914 
102*1954.330914 102*1950.664080 
102*1950.664080 102*1946.997247 
102*1946.997247 102*1943.330413 
102*1943.330413 102*1939.663580 
102*1939.663580 102*1935.996746 
102*1935.996746 102*1932.329912 
102*1932.329912 102*1928.663079 
102*1928.663079 102*1924.996245 
102*1924.996245 102*1921.329412 
102*1921.329412 102*1917.662578 
102*2104.671089 102*2101.004255 
102*2101.004255 102*2097.337422 
102*2097.337422 102*2093.670588 
102*2093.670588 102*2090.003755 
102*2090.003755 102*2086.336921 
102*2086.336921 102*2082.670088 
102*2082.670088 102*2079.003254 
102*2079.003254 102*2075.336420 
102*2075.336420 102*2071.669587 
102*2071.669587 102*2068.002753 
102*2068.002753 102*2064.335920 
102*2064.335920 102*2060.669086 
102*2060.669086 102*2057.002253 
102*2057.002253 102*2053.335419 
102*2053.335419 102*2049.668586 
102*2049.668586 102*2046.001752 
102*2046.001752 102*2042.334919 
102*2042.334919 102*2038.668085 
102*2038.668085 102*2035.001252 
102*2035.001252 102*2031.334418 
102*2031.334418 102*2027.667584 
102*2027.667584 102*2024.000751 
102*2024.000751 102*2020.333917 
102*2020.333917 102*2016.667084 
102*2016.667084 102*2013.000250 
102*2013.000250 102*2009.333417 
102*2009.333417 102*2005.666583 
102*2005.666583 102*2001.999750 
102*2001.999750 102*1998.332916 
102*1998.332916 102*1994.666083 
102*1994.666083 102*1990.999249 
102*1990.999249 102*1987.332416 
102*1987.332416 102*1983.665582 
102*1983.665582 102*1979.998748 
102*1979.998748 102*1976.331915 
102*1976.331915 102*1972.665081 
102*1972.665081 102*1968.998248 
102*1968.998248 102*1965.331414 
102*1965.331414 102*1961.664581 
102*1961.664581 102*1957.997747 
102*1957.997747 102*1954.330914 
102*1954.330914 102*1950.664080 
102*1950.664080 102*1946.997247 
102*1946.997247 102*1943.330413 
102*1943.330413 102*1939.663580 
102*1939.663580 102*1935.996746 
102*1935.996746 102*1932.329912 
102*1932.329912 102*1928.663079 
102*1928.663079 102*1924.996245 
102*1924.996245 102*1921.329412 
102*1921.329412 102*1917.662578 
102*2107.171089 102*2103.504255 
102*2103.504255 102*2099.837422 
102*2099.837422 102*2096.170588 
102*2096.170588 102*2092.503755 
102*2092.503755 102*2088.836921 
102*2088.836921 102*2085.170088 
102*2085.170088 102*2081.503254 
102*2081.503254 102*2077.836420 
102*2077.836420 102*2074.169587 
102*2074.169587 102*2070.502753 
102*2070.502753 102*2066.835920 
102*2066.835920 102*2063.169086 
102*2063.169086 102*2059.502253 
102*2059.502253 102*2055.835419 
102*2055.835419 102*2052.168586 
102*2052.168586 102*2048.501752 
102*2048.501752 102*2044.834919 
102*2044.834919 102*2041.168085 
102*2041.168085 102*2037.501252 
102*2037.501252 102*2033.834418 
102*2033.834418 102*2030.167584 
102*2030.167584 102*2026.500751 
102*2026.500751 102*2022.833917 
102*2022.833917 102*2019.167084 
102*2019.167084 102*2015.500250 
102*2015.500250 102*2011.833417 
102*2011.833417 102*2008.166583 
102*2008.166583 102*2004.499750 
102*2004.499750 102*2000.832916 
102*2000.832916 102*1997.166083 
102*1997.166083 102*1993.499249 
102*1993.499249 102*1989.832416 
102*1989.832416 102*1986.165582 
102*1986.165582 102*1982.498748 
102*1982.498748 102*1978.831915 
102*1978.831915 102*1975.165081 
102*1975.165081 102*1971.498248 
102*1971.498248 102*1967.831414 
102*1967.831414 102*1964.164581 
102*1964.164581 102*1960.497747 
102*1960.497747 102*1956.830914 
102*1956.830914 102*1953.164080 
102*1953.164080 102*1949.497247 
102*1949.497247 102*1945.830413 
102*1945.830413 102*1942.163580 
102*1942.163580 102*1938.496746 
102*1938.496746 102*1934.829912 
102*1934.829912 102*1931.163079 
102*1931.163079 102*1927.496245 
102*1927.496245 102*1923.829412 
102*1923.829412 102*1920.162578 
102*2107.171089 102*2103.504255 
102*2103.504255 102*2099.837422 
102*2099.837422 102*2096.170588 
102*2096.170588 102*2092.503755 
102*2092.503755 102*2088.836921 
102*2088.836921 102*2085.170088 
102*2085.170088 102*2081.503254 
102*2081.503254 102*2077.836420 
102*2077.836420 102*2074.169587 
102*2074.169587 102*2070.502753 
102*2070.502753 102*2066.835920 
102*2066.835920 102*2063.169086 
102*2063.169086 102*2059.502253 
102*2059.502253 102*2055.835419 
102*2055.835419 102*2052.168586 
102*2052.168586 102*2048.501752 
102*2048.501752 102*2044.834919 
102*2044.834919 102*2041.168085 
102*2041.168085 102*2037.501252 
102*2037.501252 102*2033.834418 
102*2033.834418 102*2030.167584 
102*2030.167584 102*2026.500751 
102*2026.500751 102*2022.833917 
102*2022.833917 102*2019.167084 
102*2019.167084 102*2015.500250 
102*2015.500250 102*2011.833417 
102*2011.833417 102*2008.166583 
102*2008.166583 102*2004.499750 
102*2004.499750 102*2000.832916 
102*2000.832916 102*1997.166083 
102*1997.166083 102*1993.499249 
102*1993.499249 102*1989.832416 
102*1989.832416 102*1986.165582 
102*1986.165582 102*1982.498748 
102*1982.498748 102*1978.831915 
102*1978.831915 102*1975.165081 
102*1975.165081 102*1971.498248 
102*1971.498248 102*1967.831414 
102*1967.831414 102*1964.164581 
102*1964.164581 102*1960.497747 
102*1960.497747 102*1956.830914 
102*1956.830914 102*1953.164080 
102*1953.164080 102*1949.497247 
102*1949.497247 102*1945.830413 
102*1945.830413 102*1942.163580 
102*1942.163580 102*1938.496746 
102*1938.496746 102*1934.829912 
102*1934.829912 102*1931.163079 
102*1931.163079 102*1927.496245 
102*1927.496245 102*1923.829412 
102*1923.829412 102*1920.162578 
102*2109.671089 102*2106.004255 
102*2106.004255 102*2102.337422 
102*2102.337422 102*2098.670588 
102*2098.670588 102*2095.003755 
102*2095.003755 102*2091.336921 
102*2091.336921 102*2087.670088 
102*2087.670088 102*2084.003254 
102*2084.003254 102*2080.336420 
102*2080.336420 102*2076.669587 
102*2076.669587 102*2073.002753 
102*2073.002753 102*2069.335920 
102*2069.335920 102*2065.669086 
102*2065.669086 102*2062.002253 
102*2062.002253 102*2058.335419 
102*2058.335419 102*2054.668586 
102*2054.668586 102*2051.001752 
102*2051.001752 102*2047.334919 
102*2047.334919 102*2043.668085 
102*2043.668085 102*2040.001252 
102*2040.001252 102*2036.334418 
102*2036.334418 102*2032.667584 
102*2032.667584 102*2029.000751 
102*2029.000751 102*2025.333917 
102*2025.333917 102*2021.667084 
102*2021.667084 102*2018.000250 
102*2018.000250 102*2014.333417 
102*2014.333417 102*2010.666583 
102*2010.666583 102*2006.999750 
102*2006.999750 102*2003.332916 
102*2003.332916 102*1999.666083 
102*1999.666083 102*1995.999249 
102*1995.999249 102*1992.332416 
102*1992.332416 102*1988.665582 
102*1988.665582 102*1984.998748 
102*1984.998748 102*1981.331915 
102*1981.331915 102*1977.665081 
102*1977.665081 102*1973.998248 
102*1973.998248 102*1970.331414 
102*1970.331414 102*1966.664581 
102*1966.664581 102*1962.997747 
102*1962.997747 102*1959.330914 
102*1959.330914 102*1955.664080 
102*1955.664080 102*1951.997247 
102*1951.997247 102*1948.330413 
102*1948.330413 102*1944.663580 
102*1944.663580 102*1940.996746 
102*1940.996746 102*1937.329912 
102*1937.329912 102*1933.663079 
102*1933.663079 102*1929.996245 
102*1929.996245 102*1926.329412 
102*1926.329412 102*1922.662578 
102*2109.671089 102*2106.004255 
102*2106.004255 102*2102.337422 
102*2102.337422 102*2098.670588 
102*2098.670588 102*2095.003755 
102*2095.003755 102*2091.336921 
102*2091.336921 102*2087.670088 
102*2087.670088 102*2084.003254 
102*2084.003254 102*2080.336420 
102*2080.336420 102*2076.669587 
102*2076.669587 102*2073.002753 
102*2073.002753 102*2069.335920 
102*2069.335920 102*2065.669086 
102*2065.669086 102*2062.002253 
102*2062.002253 102*2058.335419 
102*2058.335419 102*2054.668586 
102*2054.668586 102*2051.001752 
102*2051.001752 102*2047.334919 
102*2047.334919 102*2043.668085 
102*2043.668085 102*2040.001252 
102*2040.001252 102*2036.334418 
102*2036.334418 102*2032.667584 
102*2032.667584 102*2029.000751 
102*2029.000751 102*2025.333917 
102*2025.333917 102*2021.667084 
102*2021.667084 102*2018.000250 
102*2018.000250 102*2014.333417 
102*2014.333417 102*2010.666583 
102*2010.666583 102*2006.999750 
102*2006.999750 102*2003.332916 
102*2003.332916 102*1999.666083 
102*1999.666083 102*1995.999249 
102*1995.999249 102*1992.332416 
102*1992.332416 102*1988.665582 
102*1988.665582 102*1984.998748 
102*1984.998748 102*1981.331915 
102*1981.331915 102*1977.665081 
102*1977.665081 102*1973.998248 
102*1973.998248 102*1970.331414 
102*1970.331414 102*1966.664581 
102*1966.664581 102*1962.997747 
102*1962.997747 102*1959.330914 
102*1959.330914 102*1955.664080 
102*1955.664080 102*1951.997247 
102*1951.997247 102*1948.330413 
102*1948.330413 102*1944.663580 
102*1944.663580 102*1940.996746 
102*1940.996746 102*1937.329912 
102*1937.329912 102*1933.663079 
102*1933.663079 102*1929.996245 
102*1929.996245 102*1926.329412 
102*1926.329412 102*1922.662578 
102*2112.171089 102*2108.504255 
102*2108.504255 102*2104.837422 
102*2104.837422 102*2101.170588 
102*2101.170588 102*2097.503755 
102*2097.503755 102*2093.836921 
102*2093.836921 102*2090.170088 
102*2090.170088 102*2086.503254 
102*2086.503254 102*2082.836420 
102*2082.836420 102*2079.169587 
102*2079.169587 102*2075.502753 
102*2075.502753 102*2071.835920 
102*2071.835920 102*2068.169086 
102*2068.169086 102*2064.502253 
102*2064.502253 102*2060.835419 
102*2060.835419 102*2057.168586 
102*2057.168586 102*2053.501752 
102*2053.501752 102*2049.834919 
102*2049.834919 102*2046.168085 
102*2046.168085 102*2042.501252 
102*2042.501252 102*2038.834418 
102*2038.834418 102*2035.167584 
102*2035.167584 102*2031.500751 
102*2031.500751 102*2027.833917 
102*2027.833917 102*2024.167084 
102*2024.167084 102*2020.500250 
102*2020.500250 102*2016.833417 
102*2016.833417 102*2013.166583 
102*2013.166583 102*2009.499750 
102*2009.499750 102*2005.832916 
102*2005.832916 102*2002.166083 
102*2002.166083 102*1998.499249 
102*1998.499249 102*1994.832416 
102*1994.832416 102*1991.165582 
102*1991.165582 102*1987.498748 
102*1987.498748 102*1983.831915 
102*1983.831915 102*1980.165081 
102*1980.165081 102*1976.498248 
102*1976.498248 102*1972.831414 
102*1972.831414 102*1969.164581 
102*1969.164581 102*1965.497747 
102*1965.497747 102*1961.830914 
102*1961.830914 102*1958.164080 
102*1958.164080 102*1954.497247 
102*1954.497247 102*1950.830413 
102*1950.830413 102*1947.163580 
102*1947.163580 102*1943.496746 
102*1943.496746 102*1939.829912 
102*1939.829912 102*1936.163079 
102*1936.163079 102*1932.496245 
102*1932.496245 102*1928.829412 
102*1928.829412 102*1925.162578 
102*2112.171089 102*2108.504255 
102*2108.504255 102*2104.837422 
102*2104.837422 102*2101.170588 
102*2101.170588 102*2097.503755 
102*2097.503755 102*2093.836921 
102*2093.836921 102*2090.170088 
102*2090.170088 102*2086.503254 
102*2086.503254 102*2082.836420 
102*2082.836420 102*2079.169587 
102*2079.169587 102*2075.502753 
102*2075.502753 102*2071.835920 
102*2071.835920 102*2068.169086 
102*2068.169086 102*2064.502253 
102*2064.502253 102*2060.835419 
102*2060.835419 102*2057.168586 
102*2057.168586 102*2053.501752 
102*2053.501752 102*2049.834919 
102*2049.834919 102*2046.168085 
102*2046.168085 102*2042.501252 
102*2042.501252 102*2038.834418 
102*2038.834418 102*2035.167584 
102*2035.167584 102*2031.500751 
102*2031.500751 102*2027.833917 
102*2027.833917 102*2024.167084 
102*2024.167084 102*2020.500250 
102*2020.500250 102*2016.833417 
102*2016.833417 102*2013.166583 
102*2013.166583 102*2009.499750 
102*2009.499750 102*2005.832916 
102*2005.832916 102*2002.166083 
102*2002.166083 102*1998.499249 
102*1998.499249 102*1994.832416 
102*1994.832416 102*1991.165582 
102*1991.165582 102*1987.498748 
102*1987.498748 102*1983.831915 
102*1983.831915 102*1980.165081 
102*1980.165081 102*1976.498248 
102*1976.498248 102*1972.831414 
102*1972.831414 102*1969.164581 
102*1969.164581 102*1965.497747 
102*1965.497747 102*1961.830914 
102*1961.830914 102*1958.164080 
102*1958.164080 102*1954.497247 
102*1954.497247 102*1950.830413 
102*1950.830413 102*1947.163580 
102*1947.163580 102*1943.496746 
102*1943.496746 102*1939.829912 
102*1939.829912 102*1936.163079 
102*1936.163079 102*1932.496245 
102*1932.496245 102*1928.829412 
102*1928.829412 102*1925.162578 
102*2114.671089 102*2111.004255 
102*2111.004255 102*2107.337422 
102*2107.337422 102*2103.670588 
102*2103.670588 102*2100.003755 
102*2100.003755 102*2096.336921 
102*2096.336921 102*2092.670088 
102*2092.670088 102*2089.003254 
102*2089.003254 102*2085.336420 
102*2085.336420 102*2081.669587 
102*2081.669587 102*2078.002753 
102*2078.002753 102*2074.335920 
102*2074.335920 102*2070.669086 
102*2070.669086 102*2067.002253 
102*2067.002253 102*2063.335419 
102*2063.335419 102*2059.668586 
102*2059.668586 102*2056.001752 
102*2056.001752 102*2052.334919 
102*2052.334919 102*2048.668085 
102*2048.668085 102*2045.001252 
102*2045.001252 102*2041.334418 
102*2041.334418 102*2037.667584 
102*2037.667584 102*2034.000751 
102*2034.000751 102*2030.333917 
102*2030.333917 102*2026.667084 
102*2026.667084 102*2023.000250 
102*2023.000250 102*2019.333417 
102*2019.333417 102*2015.666583 
102*2015.666583 102*2011.999750 
102*2011.999750 102*2008.332916 
102*2008.332916 102*2004.666083 
102*2004.666083 102*2000.999249 
102*2000.999249 102*1997.332416 
102*1997.332416 102*1993.665582 
102*1993.665582 102*1989.998748 
102*1989.998748 102*1986.331915 
102*1986.331915 102*1982.665081 
102*1982.665081 102*1978.998248 
102*1978.998248 102*1975.331414 
102*1975.331414 102*1971.664581 
102*1971.664581 102*1967.997747 
102*1967.997747 102*1964.330914 
102*1964.330914 102*1960.664080 
102*1960.664080 102*1956.997247 
102*1956.997247 102*1953.330413 
102*1953.330413 102*1949.663580 
102*1949.663580 102*1945.996746 
102*1945.996746 102*1942.329912 
102*1942.329912 102*1938.663079 
102*1938.663079 102*1934.996245 
102*1934.996245 102*1931.329412 
102*1931.329412 102*1927.662578 
102*2114.671089 102*2111.004255 
102*2111.004255 102*2107.337422 
102*2107.337422 102*2103.670588 
102*2103.670588 102*2100.003755 
102*2100.003755 102*2096.336921 
102*2096.336921 102*2092.670088 
102*2092.670088 102*2089.003254 
102*2089.003254 102*2085.336420 
102*2085.336420 102*2081.669587 
102*2081.669587 102*2078.002753 
102*2078.002753 102*2074.335920 
102*2074.335920 102*2070.669086 
102*2070.669086 102*2067.002253 
102*2067.002253 102*2063.335419 
102*2063.335419 102*2059.668586 
102*2059.668586 102*2056.001752 
102*2056.001752 102*2052.334919 
102*2052.334919 102*2048.668085 
102*2048.668085 102*2045.001252 
102*2045.001252 102*2041.334418 
102*2041.334418 102*2037.667584 
102*2037.667584 102*2034.000751 
102*2034.000751 102*2030.333917 
102*2030.333917 102*2026.667084 
102*2026.667084 102*2023.000250 
102*2023.000250 102*2019.333417 
102*2019.333417 102*2015.666583 
102*2015.666583 102*2011.999750 
102*2011.999750 102*2008.332916 
102*2008.332916 102*2004.666083 
102*2004.666083 102*2000.999249 
102*2000.999249 102*1997.332416 
102*1997.332416 102*1993.665582 
102*1993.665582 102*1989.998748 
102*1989.998748 102*1986.331915 
102*1986.331915 102*1982.665081 
102*1982.665081 102*1978.998248 
102*1978.998248 102*1975.331414 
102*1975.331414 102*1971.664581 
102*1971.664581 102*1967.997747 
102*1967.997747 102*1964.330914 
102*1964.330914 102*1960.664080 
102*1960.664080 102*1956.997247 
102*1956.997247 102*1953.330413 
102*1953.330413 102*1949.663580 
102*1949.663580 102*1945.996746 
102*1945.996746 102*1942.329912 
102*1942.329912 102*1938.663079 
102*1938.663079 102*1934.996245 
102*1934.996245 102*1931.329412 
102*1931.329412 102*1927.662578 
102*2117.171089 102*2113.504255 
102*2113.504255 102*2109.837422 
102*2109.837422 102*2106.170588 
102*2106.170588 102*2102.503755 
102*2102.503755 102*2098.836921 
102*2098.836921 102*2095.170088 
102*2095.170088 102*2091.503254 
102*2091.503254 102*2087.836420 
102*2087.836420 102*2084.169587 
102*2084.169587 102*2080.502753 
102*2080.502753 102*2076.835920 
102*2076.835920 102*2073.169086 
102*2073.169086 102*2069.502253 
102*2069.502253 102*2065.835419 
102*2065.835419 102*2062.168586 
102*2062.168586 102*2058.501752 
102*2058.501752 102*2054.834919 
102*2054.834919 102*2051.168085 
102*2051.168085 102*2047.501252 
102*2047.501252 102*2043.834418 
102*2043.834418 102*2040.167584 
102*2040.167584 102*2036.500751 
102*2036.500751 102*2032.833917 
102*2032.833917 102*2029.167084 
102*2029.167084 102*2025.500250 
102*2025.500250 102*2021.833417 
102*2021.833417 102*2018.166583 
102*2018.166583 102*2014.499750 
102*2014.499750 102*2010.832916 
102*2010.832916 102*2007.166083 
102*2007.166083 102*2003.499249 
102*2003.499249 102*1999.832416 
102*1999.832416 102*1996.165582 
102*1996.165582 102*1992.498748 
102*1992.498748 102*1988.831915 
102*1988.831915 102*1985.165081 
102*1985.165081 102*1981.498248 
102*1981.498248 102*1977.831414 
102*1977.831414 102*1974.164581 
102*1974.164581 102*1970.497747 
102*1970.497747 102*1966.830914 
102*1966.830914 102*1963.164080 
102*1963.164080 102*1959.497247 
102*1959.497247 102*1955.830413 
102*1955.830413 102*1952.163580 
102*1952.163580 102*1948.496746 
102*1948.496746 102*1944.829912 
102*1944.829912 102*1941.163079 
102*1941.163079 102*1937.496245 
102*1937.496245 102*1933.829412 
102*1933.829412 102*1930.162578 
102*2117.171089 102*2113.504255 
102*2113.504255 102*2109.837422 
102*2109.837422 102*2106.170588 
102*2106.170588 102*2102.503755 
102*2102.503755 102*2098.836921 
102*2098.836921 102*2095.170088 
102*2095.170088 102*2091.503254 
102*2091.503254 102*2087.836420 
102*2087.836420 102*2084.169587 
102*2084.169587 102*2080.502753 
102*2080.502753 102*2076.835920 
102*2076.835920 102*2073.169086 
102*2073.169086 102*2069.502253 
102*2069.502253 102*2065.835419 
102*2065.835419 102*2062.168586 
102*2062.168586 102*2058.501752 
102*2058.501752 102*2054.834919 
102*2054.834919 102*2051.168085 
102*2051.168085 102*2047.501252 
102*2047.501252 102*2043.834418 
102*2043.834418 102*2040.167584 
102*2040.167584 102*2036.500751 
102*2036.500751 102*2032.833917 
102*2032.833917 102*2029.167084 
102*2029.167084 102*2025.500250 
102*2025.500250 102*2021.833417 
102*2021.833417 102*2018.166583 
102*2018.166583 102*2014.499750 
102*2014.499750 102*2010.832916 
102*2010.832916 102*2007.166083 
102*2007.166083 102*2003.499249 
102*2003.499249 102*1999.832416 
102*1999.832416 102*1996.165582 
102*1996.165582 102*1992.498748 
102*1992.498748 102*1988.831915 
102*1988.831915 102*1985.165081 
102*1985.165081 102*1981.498248 
102*1981.498248 102*1977.831414 
102*1977.831414 102*1974.164581 
102*1974.164581 102*1970.497747 
102*1970.497747 102*1966.830914 
102*1966.830914 102*1963.164080 
102*1963.164080 102*1959.497247 
102*1959.497247 102*1955.830413 
102*1955.830413 102*1952.163580 
102*1952.163580 102*1948.496746 
102*1948.496746 102*1944.829912 
102*1944.829912 102*1941.163079 
102*1941.163079 102*1937.496245 
102*1937.496245 102*1933.829412 
102*1933.829412 102*1930.162578 
102*2119.671089 102*2116.004255 
102*2116.004255 102*2112.337422 
102*2112.337422 102*2108.670588 
102*2108.670588 102*2105.003755 
102*2105.003755 102*2101.336921 
102*2101.336921 102*2097.670088 
102*2097.670088 102*2094.003254 
102*2094.003254 102*2090.336420 
102*2090.336420 102*2086.669587 
102*2086.669587 102*2083.002753 
102*2083.002753 102*2079.335920 
102*2079.335920 102*2075.669086 
102*2075.669086 102*2072.002253 
102*2072.002253 102*2068.335419 
102*2068.335419 102*2064.668586 
102*2064.668586 102*2061.001752 
102*2061.001752 102*2057.334919 
102*2057.334919 102*2053.668085 
102*2053.668085 102*2050.001252 
102*2050.001252 102*2046.334418 
102*2046.334418 102*2042.667584 
102*2042.667584 102*2039.000751 
102*2039.000751 102*2035.333917 
102*2035.333917 102*2031.667084 
102*2031.667084 102*2028.000250 
102*2028.000250 102*2024.333417 
102*2024.333417 102*2020.666583 
102*2020.666583 102*2016.999750 
102*2016.999750 102*2013.332916 
102*2013.332916 102*2009.666083 
102*2009.666083 102*2005.999249 
102*2005.999249 102*2002.332416 
102*2002.332416 102*1998.665582 
102*1998.665582 102*1994.998748 
102*1994.998748 102*1991.331915 
102*1991.331915 102*1987.665081 
102*1987.665081 102*1983.998248 
102*1983.998248 102*1980.331414 
102*1980.331414 102*1976.664581 
102*1976.664581 102*1972.997747 
102*1972.997747 102*1969.330914 