ZCORN
102*2126.825052 102*2122.039201 
102*2122.039201 102*2117.253350 
102*2117.253350 102*2112.467499 
102*2112.467499 102*2107.681648 
102*2107.681648 102*2102.895797 
102*2102.895797 102*2098.109946 
102*2098.109946 102*2093.324095 
102*2093.324095 102*2088.538244 
102*2088.538244 102*2083.752393 
102*2083.752393 102*2078.966542 
102*2078.966542 102*2074.180691 
102*2074.180691 102*2069.394840 
102*2069.394840 102*2064.608989 
102*2064.608989 102*2059.823138 
102*2059.823138 102*2055.037287 
102*2055.037287 102*2050.251436 
102*2050.251436 102*2045.465585 
102*2045.465585 102*2040.679734 
102*2040.679734 102*2035.893883 
102*2035.893883 102*2031.108032 
102*2031.108032 102*2026.322181 
102*2026.322181 102*2021.536330 
102*2021.536330 102*2016.750479 
102*2016.750479 102*2011.964628 
102*2011.964628 102*2007.178777 
102*2007.178777 102*2002.392926 
102*2002.392926 102*1997.607074 
102*1997.607074 102*1992.821223 
102*1992.821223 102*1988.035372 
102*1988.035372 102*1983.249521 
102*1983.249521 102*1978.463670 
102*1978.463670 102*1973.677819 
102*1973.677819 102*1968.891968 
102*1968.891968 102*1964.106117 
102*1964.106117 102*1959.320266 
102*1959.320266 102*1954.534415 
102*1954.534415 102*1949.748564 
102*1949.748564 102*1944.962713 
102*1944.962713 102*1940.176862 
102*1940.176862 102*1935.391011 
102*1935.391011 102*1930.605160 
102*1930.605160 102*1925.819309 
102*1925.819309 102*1921.033458 
102*1921.033458 102*1916.247607 
102*1916.247607 102*1911.461756 
102*1911.461756 102*1906.675905 
102*1906.675905 102*1901.890054 
102*1901.890054 102*1897.104203 
102*1897.104203 102*1892.318352 
102*1892.318352 102*1887.532501 
102*1887.532501 102*1882.746650 
102*2129.325052 102*2124.539201 
102*2124.539201 102*2119.753350 
102*2119.753350 102*2114.967499 
102*2114.967499 102*2110.181648 
102*2110.181648 102*2105.395797 
102*2105.395797 102*2100.609946 
102*2100.609946 102*2095.824095 
102*2095.824095 102*2091.038244 
102*2091.038244 102*2086.252393 
102*2086.252393 102*2081.466542 
102*2081.466542 102*2076.680691 
102*2076.680691 102*2071.894840 
102*2071.894840 102*2067.108989 
102*2067.108989 102*2062.323138 
102*2062.323138 102*2057.537287 
102*2057.537287 102*2052.751436 
102*2052.751436 102*2047.965585 
102*2047.965585 102*2043.179734 
102*2043.179734 102*2038.393883 
102*2038.393883 102*2033.608032 
102*2033.608032 102*2028.822181 
102*2028.822181 102*2024.036330 
102*2024.036330 102*2019.250479 
102*2019.250479 102*2014.464628 
102*2014.464628 102*2009.678777 
102*2009.678777 102*2004.892926 
102*2004.892926 102*2000.107074 
102*2000.107074 102*1995.321223 
102*1995.321223 102*1990.535372 
102*1990.535372 102*1985.749521 
102*1985.749521 102*1980.963670 
102*1980.963670 102*1976.177819 
102*1976.177819 102*1971.391968 
102*1971.391968 102*1966.606117 
102*1966.606117 102*1961.820266 
102*1961.820266 102*1957.034415 
102*1957.034415 102*1952.248564 
102*1952.248564 102*1947.462713 
102*1947.462713 102*1942.676862 
102*1942.676862 102*1937.891011 
102*1937.891011 102*1933.105160 
102*1933.105160 102*1928.319309 
102*1928.319309 102*1923.533458 
102*1923.533458 102*1918.747607 
102*1918.747607 102*1913.961756 
102*1913.961756 102*1909.175905 
102*1909.175905 102*1904.390054 
102*1904.390054 102*1899.604203 
102*1899.604203 102*1894.818352 
102*1894.818352 102*1890.032501 
102*1890.032501 102*1885.246650 
102*2129.325052 102*2124.539201 
102*2124.539201 102*2119.753350 
102*2119.753350 102*2114.967499 
102*2114.967499 102*2110.181648 
102*2110.181648 102*2105.395797 
102*2105.395797 102*2100.609946 
102*2100.609946 102*2095.824095 
102*2095.824095 102*2091.038244 
102*2091.038244 102*2086.252393 
102*2086.252393 102*2081.466542 
102*2081.466542 102*2076.680691 
102*2076.680691 102*2071.894840 
102*2071.894840 102*2067.108989 
102*2067.108989 102*2062.323138 
102*2062.323138 102*2057.537287 
102*2057.537287 102*2052.751436 
102*2052.751436 102*2047.965585 
102*2047.965585 102*2043.179734 
102*2043.179734 102*2038.393883 
102*2038.393883 102*2033.608032 
102*2033.608032 102*2028.822181 
102*2028.822181 102*2024.036330 
102*2024.036330 102*2019.250479 
102*2019.250479 102*2014.464628 
102*2014.464628 102*2009.678777 
102*2009.678777 102*2004.892926 
102*2004.892926 102*2000.107074 
102*2000.107074 102*1995.321223 
102*1995.321223 102*1990.535372 
102*1990.535372 102*1985.749521 
102*1985.749521 102*1980.963670 
102*1980.963670 102*1976.177819 
102*1976.177819 102*1971.391968 
102*1971.391968 102*1966.606117 
102*1966.606117 102*1961.820266 
102*1961.820266 102*1957.034415 
102*1957.034415 102*1952.248564 
102*1952.248564 102*1947.462713 
102*1947.462713 102*1942.676862 
102*1942.676862 102*1937.891011 
102*1937.891011 102*1933.105160 
102*1933.105160 102*1928.319309 
102*1928.319309 102*1923.533458 
102*1923.533458 102*1918.747607 
102*1918.747607 102*1913.961756 
102*1913.961756 102*1909.175905 
102*1909.175905 102*1904.390054 
102*1904.390054 102*1899.604203 
102*1899.604203 102*1894.818352 
102*1894.818352 102*1890.032501 
102*1890.032501 102*1885.246650 
102*2131.825052 102*2127.039201 
102*2127.039201 102*2122.253350 
102*2122.253350 102*2117.467499 
102*2117.467499 102*2112.681648 
102*2112.681648 102*2107.895797 
102*2107.895797 102*2103.109946 
102*2103.109946 102*2098.324095 
102*2098.324095 102*2093.538244 
102*2093.538244 102*2088.752393 
102*2088.752393 102*2083.966542 
102*2083.966542 102*2079.180691 
102*2079.180691 102*2074.394840 
102*2074.394840 102*2069.608989 
102*2069.608989 102*2064.823138 
102*2064.823138 102*2060.037287 
102*2060.037287 102*2055.251436 
102*2055.251436 102*2050.465585 
102*2050.465585 102*2045.679734 
102*2045.679734 102*2040.893883 
102*2040.893883 102*2036.108032 
102*2036.108032 102*2031.322181 
102*2031.322181 102*2026.536330 
102*2026.536330 102*2021.750479 
102*2021.750479 102*2016.964628 
102*2016.964628 102*2012.178777 
102*2012.178777 102*2007.392926 
102*2007.392926 102*2002.607074 
102*2002.607074 102*1997.821223 
102*1997.821223 102*1993.035372 
102*1993.035372 102*1988.249521 
102*1988.249521 102*1983.463670 
102*1983.463670 102*1978.677819 
102*1978.677819 102*1973.891968 
102*1973.891968 102*1969.106117 
102*1969.106117 102*1964.320266 
102*1964.320266 102*1959.534415 
102*1959.534415 102*1954.748564 
102*1954.748564 102*1949.962713 
102*1949.962713 102*1945.176862 
102*1945.176862 102*1940.391011 
102*1940.391011 102*1935.605160 
102*1935.605160 102*1930.819309 
102*1930.819309 102*1926.033458 
102*1926.033458 102*1921.247607 
102*1921.247607 102*1916.461756 
102*1916.461756 102*1911.675905 
102*1911.675905 102*1906.890054 
102*1906.890054 102*1902.104203 
102*1902.104203 102*1897.318352 
102*1897.318352 102*1892.532501 
102*1892.532501 102*1887.746650 
102*2131.825052 102*2127.039201 
102*2127.039201 102*2122.253350 
102*2122.253350 102*2117.467499 
102*2117.467499 102*2112.681648 
102*2112.681648 102*2107.895797 
102*2107.895797 102*2103.109946 
102*2103.109946 102*2098.324095 
102*2098.324095 102*2093.538244 
102*2093.538244 102*2088.752393 
102*2088.752393 102*2083.966542 
102*2083.966542 102*2079.180691 
102*2079.180691 102*2074.394840 
102*2074.394840 102*2069.608989 
102*2069.608989 102*2064.823138 
102*2064.823138 102*2060.037287 
102*2060.037287 102*2055.251436 
102*2055.251436 102*2050.465585 
102*2050.465585 102*2045.679734 
102*2045.679734 102*2040.893883 
102*2040.893883 102*2036.108032 
102*2036.108032 102*2031.322181 
102*2031.322181 102*2026.536330 
102*2026.536330 102*2021.750479 
102*2021.750479 102*2016.964628 
102*2016.964628 102*2012.178777 
102*2012.178777 102*2007.392926 
102*2007.392926 102*2002.607074 
102*2002.607074 102*1997.821223 
102*1997.821223 102*1993.035372 
102*1993.035372 102*1988.249521 
102*1988.249521 102*1983.463670 
102*1983.463670 102*1978.677819 
102*1978.677819 102*1973.891968 
102*1973.891968 102*1969.106117 
102*1969.106117 102*1964.320266 
102*1964.320266 102*1959.534415 
102*1959.534415 102*1954.748564 
102*1954.748564 102*1949.962713 
102*1949.962713 102*1945.176862 
102*1945.176862 102*1940.391011 
102*1940.391011 102*1935.605160 
102*1935.605160 102*1930.819309 
102*1930.819309 102*1926.033458 
102*1926.033458 102*1921.247607 
102*1921.247607 102*1916.461756 
102*1916.461756 102*1911.675905 
102*1911.675905 102*1906.890054 
102*1906.890054 102*1902.104203 
102*1902.104203 102*1897.318352 
102*1897.318352 102*1892.532501 
102*1892.532501 102*1887.746650 
102*2134.325052 102*2129.539201 
102*2129.539201 102*2124.753350 
102*2124.753350 102*2119.967499 
102*2119.967499 102*2115.181648 
102*2115.181648 102*2110.395797 
102*2110.395797 102*2105.609946 
102*2105.609946 102*2100.824095 
102*2100.824095 102*2096.038244 
102*2096.038244 102*2091.252393 
102*2091.252393 102*2086.466542 
102*2086.466542 102*2081.680691 
102*2081.680691 102*2076.894840 
102*2076.894840 102*2072.108989 
102*2072.108989 102*2067.323138 
102*2067.323138 102*2062.537287 
102*2062.537287 102*2057.751436 
102*2057.751436 102*2052.965585 
102*2052.965585 102*2048.179734 
102*2048.179734 102*2043.393883 
102*2043.393883 102*2038.608032 
102*2038.608032 102*2033.822181 
102*2033.822181 102*2029.036330 
102*2029.036330 102*2024.250479 
102*2024.250479 102*2019.464628 
102*2019.464628 102*2014.678777 
102*2014.678777 102*2009.892926 
102*2009.892926 102*2005.107074 
102*2005.107074 102*2000.321223 
102*2000.321223 102*1995.535372 
102*1995.535372 102*1990.749521 
102*1990.749521 102*1985.963670 
102*1985.963670 102*1981.177819 
102*1981.177819 102*1976.391968 
102*1976.391968 102*1971.606117 
102*1971.606117 102*1966.820266 
102*1966.820266 102*1962.034415 
102*1962.034415 102*1957.248564 
102*1957.248564 102*1952.462713 
102*1952.462713 102*1947.676862 
102*1947.676862 102*1942.891011 
102*1942.891011 102*1938.105160 
102*1938.105160 102*1933.319309 
102*1933.319309 102*1928.533458 
102*1928.533458 102*1923.747607 
102*1923.747607 102*1918.961756 
102*1918.961756 102*1914.175905 
102*1914.175905 102*1909.390054 
102*1909.390054 102*1904.604203 
102*1904.604203 102*1899.818352 
102*1899.818352 102*1895.032501 
102*1895.032501 102*1890.246650 
102*2134.325052 102*2129.539201 
102*2129.539201 102*2124.753350 
102*2124.753350 102*2119.967499 
102*2119.967499 102*2115.181648 
102*2115.181648 102*2110.395797 
102*2110.395797 102*2105.609946 
102*2105.609946 102*2100.824095 
102*2100.824095 102*2096.038244 
102*2096.038244 102*2091.252393 
102*2091.252393 102*2086.466542 
102*2086.466542 102*2081.680691 
102*2081.680691 102*2076.894840 
102*2076.894840 102*2072.108989 
102*2072.108989 102*2067.323138 
102*2067.323138 102*2062.537287 
102*2062.537287 102*2057.751436 
102*2057.751436 102*2052.965585 
102*2052.965585 102*2048.179734 
102*2048.179734 102*2043.393883 
102*2043.393883 102*2038.608032 
102*2038.608032 102*2033.822181 
102*2033.822181 102*2029.036330 
102*2029.036330 102*2024.250479 
102*2024.250479 102*2019.464628 
102*2019.464628 102*2014.678777 
102*2014.678777 102*2009.892926 
102*2009.892926 102*2005.107074 
102*2005.107074 102*2000.321223 
102*2000.321223 102*1995.535372 
102*1995.535372 102*1990.749521 
102*1990.749521 102*1985.963670 
102*1985.963670 102*1981.177819 
102*1981.177819 102*1976.391968 
102*1976.391968 102*1971.606117 
102*1971.606117 102*1966.820266 
102*1966.820266 102*1962.034415 
102*1962.034415 102*1957.248564 
102*1957.248564 102*1952.462713 
102*1952.462713 102*1947.676862 
102*1947.676862 102*1942.891011 
102*1942.891011 102*1938.105160 
102*1938.105160 102*1933.319309 
102*1933.319309 102*1928.533458 
102*1928.533458 102*1923.747607 
102*1923.747607 102*1918.961756 
102*1918.961756 102*1914.175905 
102*1914.175905 102*1909.390054 
102*1909.390054 102*1904.604203 
102*1904.604203 102*1899.818352 
102*1899.818352 102*1895.032501 
102*1895.032501 102*1890.246650 
102*2136.825052 102*2132.039201 
102*2132.039201 102*2127.253350 
102*2127.253350 102*2122.467499 
102*2122.467499 102*2117.681648 
102*2117.681648 102*2112.895797 
102*2112.895797 102*2108.109946 
102*2108.109946 102*2103.324095 
102*2103.324095 102*2098.538244 
102*2098.538244 102*2093.752393 
102*2093.752393 102*2088.966542 
102*2088.966542 102*2084.180691 
102*2084.180691 102*2079.394840 
102*2079.394840 102*2074.608989 
102*2074.608989 102*2069.823138 
102*2069.823138 102*2065.037287 
102*2065.037287 102*2060.251436 
102*2060.251436 102*2055.465585 
102*2055.465585 102*2050.679734 
102*2050.679734 102*2045.893883 
102*2045.893883 102*2041.108032 
102*2041.108032 102*2036.322181 
102*2036.322181 102*2031.536330 
102*2031.536330 102*2026.750479 
102*2026.750479 102*2021.964628 
102*2021.964628 102*2017.178777 
102*2017.178777 102*2012.392926 
102*2012.392926 102*2007.607074 
102*2007.607074 102*2002.821223 
102*2002.821223 102*1998.035372 
102*1998.035372 102*1993.249521 
102*1993.249521 102*1988.463670 
102*1988.463670 102*1983.677819 
102*1983.677819 102*1978.891968 
102*1978.891968 102*1974.106117 
102*1974.106117 102*1969.320266 
102*1969.320266 102*1964.534415 
102*1964.534415 102*1959.748564 
102*1959.748564 102*1954.962713 
102*1954.962713 102*1950.176862 
102*1950.176862 102*1945.391011 
102*1945.391011 102*1940.605160 
102*1940.605160 102*1935.819309 
102*1935.819309 102*1931.033458 
102*1931.033458 102*1926.247607 
102*1926.247607 102*1921.461756 
102*1921.461756 102*1916.675905 
102*1916.675905 102*1911.890054 
102*1911.890054 102*1907.104203 
102*1907.104203 102*1902.318352 
102*1902.318352 102*1897.532501 
102*1897.532501 102*1892.746650 
102*2136.825052 102*2132.039201 
102*2132.039201 102*2127.253350 
102*2127.253350 102*2122.467499 
102*2122.467499 102*2117.681648 
102*2117.681648 102*2112.895797 
102*2112.895797 102*2108.109946 
102*2108.109946 102*2103.324095 
102*2103.324095 102*2098.538244 
102*2098.538244 102*2093.752393 
102*2093.752393 102*2088.966542 
102*2088.966542 102*2084.180691 
102*2084.180691 102*2079.394840 
102*2079.394840 102*2074.608989 
102*2074.608989 102*2069.823138 
102*2069.823138 102*2065.037287 
102*2065.037287 102*2060.251436 
102*2060.251436 102*2055.465585 
102*2055.465585 102*2050.679734 
102*2050.679734 102*2045.893883 
102*2045.893883 102*2041.108032 
102*2041.108032 102*2036.322181 
102*2036.322181 102*2031.536330 
102*2031.536330 102*2026.750479 
102*2026.750479 102*2021.964628 
102*2021.964628 102*2017.178777 
102*2017.178777 102*2012.392926 
102*2012.392926 102*2007.607074 
102*2007.607074 102*2002.821223 
102*2002.821223 102*1998.035372 
102*1998.035372 102*1993.249521 
102*1993.249521 102*1988.463670 
102*1988.463670 102*1983.677819 
102*1983.677819 102*1978.891968 
102*1978.891968 102*1974.106117 
102*1974.106117 102*1969.320266 
102*1969.320266 102*1964.534415 
102*1964.534415 102*1959.748564 
102*1959.748564 102*1954.962713 
102*1954.962713 102*1950.176862 
102*1950.176862 102*1945.391011 
102*1945.391011 102*1940.605160 
102*1940.605160 102*1935.819309 
102*1935.819309 102*1931.033458 
102*1931.033458 102*1926.247607 
102*1926.247607 102*1921.461756 
102*1921.461756 102*1916.675905 
102*1916.675905 102*1911.890054 
102*1911.890054 102*1907.104203 
102*1907.104203 102*1902.318352 
102*1902.318352 102*1897.532501 
102*1897.532501 102*1892.746650 
102*2139.325052 102*2134.539201 
102*2134.539201 102*2129.753350 
102*2129.753350 102*2124.967499 
102*2124.967499 102*2120.181648 
102*2120.181648 102*2115.395797 
102*2115.395797 102*2110.609946 
102*2110.609946 102*2105.824095 
102*2105.824095 102*2101.038244 
102*2101.038244 102*2096.252393 
102*2096.252393 102*2091.466542 
102*2091.466542 102*2086.680691 
102*2086.680691 102*2081.894840 
102*2081.894840 102*2077.108989 
102*2077.108989 102*2072.323138 
102*2072.323138 102*2067.537287 
102*2067.537287 102*2062.751436 
102*2062.751436 102*2057.965585 
102*2057.965585 102*2053.179734 
102*2053.179734 102*2048.393883 
102*2048.393883 102*2043.608032 
102*2043.608032 102*2038.822181 
102*2038.822181 102*2034.036330 
102*2034.036330 102*2029.250479 
102*2029.250479 102*2024.464628 
102*2024.464628 102*2019.678777 
102*2019.678777 102*2014.892926 
102*2014.892926 102*2010.107074 
102*2010.107074 102*2005.321223 
102*2005.321223 102*2000.535372 
102*2000.535372 102*1995.749521 
102*1995.749521 102*1990.963670 
102*1990.963670 102*1986.177819 
102*1986.177819 102*1981.391968 
102*1981.391968 102*1976.606117 
102*1976.606117 102*1971.820266 
102*1971.820266 102*1967.034415 
102*1967.034415 102*1962.248564 
102*1962.248564 102*1957.462713 
102*1957.462713 102*1952.676862 
102*1952.676862 102*1947.891011 
102*1947.891011 102*1943.105160 
102*1943.105160 102*1938.319309 
102*1938.319309 102*1933.533458 
102*1933.533458 102*1928.747607 
102*1928.747607 102*1923.961756 
102*1923.961756 102*1919.175905 
102*1919.175905 102*1914.390054 
102*1914.390054 102*1909.604203 
102*1909.604203 102*1904.818352 
102*1904.818352 102*1900.032501 
102*1900.032501 102*1895.246650 
102*2139.325052 102*2134.539201 
102*2134.539201 102*2129.753350 
102*2129.753350 102*2124.967499 
102*2124.967499 102*2120.181648 
102*2120.181648 102*2115.395797 
102*2115.395797 102*2110.609946 
102*2110.609946 102*2105.824095 
102*2105.824095 102*2101.038244 
102*2101.038244 102*2096.252393 
102*2096.252393 102*2091.466542 
102*2091.466542 102*2086.680691 
102*2086.680691 102*2081.894840 
102*2081.894840 102*2077.108989 
102*2077.108989 102*2072.323138 
102*2072.323138 102*2067.537287 
102*2067.537287 102*2062.751436 
102*2062.751436 102*2057.965585 
102*2057.965585 102*2053.179734 
102*2053.179734 102*2048.393883 
102*2048.393883 102*2043.608032 
102*2043.608032 102*2038.822181 
102*2038.822181 102*2034.036330 
102*2034.036330 102*2029.250479 
102*2029.250479 102*2024.464628 
102*2024.464628 102*2019.678777 
102*2019.678777 102*2014.892926 
102*2014.892926 102*2010.107074 
102*2010.107074 102*2005.321223 
102*2005.321223 102*2000.535372 
102*2000.535372 102*1995.749521 
102*1995.749521 102*1990.963670 
102*1990.963670 102*1986.177819 
102*1986.177819 102*1981.391968 
102*1981.391968 102*1976.606117 
102*1976.606117 102*1971.820266 
102*1971.820266 102*1967.034415 
102*1967.034415 102*1962.248564 
102*1962.248564 102*1957.462713 
102*1957.462713 102*1952.676862 
102*1952.676862 102*1947.891011 
102*1947.891011 102*1943.105160 
102*1943.105160 102*1938.319309 
102*1938.319309 102*1933.533458 
102*1933.533458 102*1928.747607 
102*1928.747607 102*1923.961756 
102*1923.961756 102*1919.175905 
102*1919.175905 102*1914.390054 
102*1914.390054 102*1909.604203 
102*1909.604203 102*1904.818352 
102*1904.818352 102*1900.032501 
102*1900.032501 102*1895.246650 
102*2141.825052 102*2137.039201 
102*2137.039201 102*2132.253350 
102*2132.253350 102*2127.467499 
102*2127.467499 102*2122.681648 
102*2122.681648 102*2117.895797 
102*2117.895797 102*2113.109946 
102*2113.109946 102*2108.324095 
102*2108.324095 102*2103.538244 
102*2103.538244 102*2098.752393 
102*2098.752393 102*2093.966542 
102*2093.966542 102*2089.180691 
102*2089.180691 102*2084.394840 
102*2084.394840 102*2079.608989 
102*2079.608989 102*2074.823138 
102*2074.823138 102*2070.037287 
102*2070.037287 102*2065.251436 
102*2065.251436 102*2060.465585 
102*2060.465585 102*2055.679734 
102*2055.679734 102*2050.893883 
102*2050.893883 102*2046.108032 
102*2046.108032 102*2041.322181 
102*2041.322181 102*2036.536330 
102*2036.536330 102*2031.750479 
102*2031.750479 102*2026.964628 
102*2026.964628 102*2022.178777 
102*2022.178777 102*2017.392926 
102*2017.392926 102*2012.607074 
102*2012.607074 102*2007.821223 
102*2007.821223 102*2003.035372 
102*2003.035372 102*1998.249521 
102*1998.249521 102*1993.463670 
102*1993.463670 102*1988.677819 
102*1988.677819 102*1983.891968 
102*1983.891968 102*1979.106117 
102*1979.106117 102*1974.320266 
102*1974.320266 102*1969.534415 
102*1969.534415 102*1964.748564 
102*1964.748564 102*1959.962713 
102*1959.962713 102*1955.176862 
102*1955.176862 102*1950.391011 
102*1950.391011 102*1945.605160 
102*1945.605160 102*1940.819309 
102*1940.819309 102*1936.033458 
102*1936.033458 102*1931.247607 
102*1931.247607 102*1926.461756 
102*1926.461756 102*1921.675905 
102*1921.675905 102*1916.890054 
102*1916.890054 102*1912.104203 
102*1912.104203 102*1907.318352 
102*1907.318352 102*1902.532501 
102*1902.532501 102*1897.746650 
102*2141.825052 102*2137.039201 
102*2137.039201 102*2132.253350 
102*2132.253350 102*2127.467499 
102*2127.467499 102*2122.681648 
102*2122.681648 102*2117.895797 
102*2117.895797 102*2113.109946 
102*2113.109946 102*2108.324095 
102*2108.324095 102*2103.538244 
102*2103.538244 102*2098.752393 
102*2098.752393 102*2093.966542 
102*2093.966542 102*2089.180691 
102*2089.180691 102*2084.394840 
102*2084.394840 102*2079.608989 
102*2079.608989 102*2074.823138 
102*2074.823138 102*2070.037287 
102*2070.037287 102*2065.251436 
102*2065.251436 102*2060.465585 
102*2060.465585 102*2055.679734 
102*2055.679734 102*2050.893883 
102*2050.893883 102*2046.108032 
102*2046.108032 102*2041.322181 
102*2041.322181 102*2036.536330 
102*2036.536330 102*2031.750479 
102*2031.750479 102*2026.964628 
102*2026.964628 102*2022.178777 
102*2022.178777 102*2017.392926 
102*2017.392926 102*2012.607074 
102*2012.607074 102*2007.821223 
102*2007.821223 102*2003.035372 
102*2003.035372 102*1998.249521 
102*1998.249521 102*1993.463670 
102*1993.463670 102*1988.677819 
102*1988.677819 102*1983.891968 
102*1983.891968 102*1979.106117 
102*1979.106117 102*1974.320266 
102*1974.320266 102*1969.534415 
102*1969.534415 102*1964.748564 
102*1964.748564 102*1959.962713 
102*1959.962713 102*1955.176862 
102*1955.176862 102*1950.391011 
102*1950.391011 102*1945.605160 
102*1945.605160 102*1940.819309 
102*1940.819309 102*1936.033458 
102*1936.033458 102*1931.247607 
102*1931.247607 102*1926.461756 
102*1926.461756 102*1921.675905 
102*1921.675905 102*1916.890054 
102*1916.890054 102*1912.104203 
102*1912.104203 102*1907.318352 
102*1907.318352 102*1902.532501 
102*1902.532501 102*1897.746650 
102*2144.325052 102*2139.539201 
102*2139.539201 102*2134.753350 
102*2134.753350 102*2129.967499 
102*2129.967499 102*2125.181648 
102*2125.181648 102*2120.395797 
102*2120.395797 102*2115.609946 
102*2115.609946 102*2110.824095 
102*2110.824095 102*2106.038244 
102*2106.038244 102*2101.252393 
102*2101.252393 102*2096.466542 
102*2096.466542 102*2091.680691 
102*2091.680691 102*2086.894840 
102*2086.894840 102*2082.108989 
102*2082.108989 102*2077.323138 
102*2077.323138 102*2072.537287 
102*2072.537287 102*2067.751436 
102*2067.751436 102*2062.965585 
102*2062.965585 102*2058.179734 
102*2058.179734 102*2053.393883 
102*2053.393883 102*2048.608032 
102*2048.608032 102*2043.822181 
102*2043.822181 102*2039.036330 
102*2039.036330 102*2034.250479 
102*2034.250479 102*2029.464628 
102*2029.464628 102*2024.678777 
102*2024.678777 102*2019.892926 
102*2019.892926 102*2015.107074 
102*2015.107074 102*2010.321223 
102*2010.321223 102*2005.535372 
102*2005.535372 102*2000.749521 
102*2000.749521 102*1995.963670 
102*1995.963670 102*1991.177819 
102*1991.177819 102*1986.391968 
102*1986.391968 102*1981.606117 
102*1981.606117 102*1976.820266 
102*1976.820266 102*1972.034415 
102*1972.034415 102*1967.248564 
102*1967.248564 102*1962.462713 
102*1962.462713 102*1957.676862 
102*1957.676862 102*1952.891011 
102*1952.891011 102*1948.105160 
102*1948.105160 102*1943.319309 
102*1943.319309 102*1938.533458 
102*1938.533458 102*1933.747607 
102*1933.747607 102*1928.961756 
102*1928.961756 102*1924.175905 
102*1924.175905 102*1919.390054 
102*1919.390054 102*1914.604203 
102*1914.604203 102*1909.818352 
102*1909.818352 102*1905.032501 
102*1905.032501 102*1900.246650 
102*2144.325052 102*2139.539201 
102*2139.539201 102*2134.753350 
102*2134.753350 102*2129.967499 
102*2129.967499 102*2125.181648 
102*2125.181648 102*2120.395797 
102*2120.395797 102*2115.609946 
102*2115.609946 102*2110.824095 
102*2110.824095 102*2106.038244 
102*2106.038244 102*2101.252393 
102*2101.252393 102*2096.466542 
102*2096.466542 102*2091.680691 
102*2091.680691 102*2086.894840 
102*2086.894840 102*2082.108989 
102*2082.108989 102*2077.323138 
102*2077.323138 102*2072.537287 
102*2072.537287 102*2067.751436 
102*2067.751436 102*2062.965585 
102*2062.965585 102*2058.179734 
102*2058.179734 102*2053.393883 
102*2053.393883 102*2048.608032 
102*2048.608032 102*2043.822181 
102*2043.822181 102*2039.036330 
102*2039.036330 102*2034.250479 
102*2034.250479 102*2029.464628 
102*2029.464628 102*2024.678777 
102*2024.678777 102*2019.892926 
102*2019.892926 102*2015.107074 
102*2015.107074 102*2010.321223 
102*2010.321223 102*2005.535372 
102*2005.535372 102*2000.749521 
102*2000.749521 102*1995.963670 
102*1995.963670 102*1991.177819 
102*1991.177819 102*1986.391968 
102*1986.391968 102*1981.606117 
102*1981.606117 102*1976.820266 
102*1976.820266 102*1972.034415 
102*1972.034415 102*1967.248564 
102*1967.248564 102*1962.462713 
102*1962.462713 102*1957.676862 
102*1957.676862 102*1952.891011 
102*1952.891011 102*1948.105160 
102*1948.105160 102*1943.319309 
102*1943.319309 102*1938.533458 
102*1938.533458 102*1933.747607 
102*1933.747607 102*1928.961756 
102*1928.961756 102*1924.175905 
102*1924.175905 102*1919.390054 
102*1919.390054 102*1914.604203 
102*1914.604203 102*1909.818352 
102*1909.818352 102*1905.032501 
102*1905.032501 102*1900.246650 
102*2146.825052 102*2142.039201 
102*2142.039201 102*2137.253350 
102*2137.253350 102*2132.467499 
102*2132.467499 102*2127.681648 
102*2127.681648 102*2122.895797 
102*2122.895797 102*2118.109946 
102*2118.109946 102*2113.324095 
102*2113.324095 102*2108.538244 
102*2108.538244 102*2103.752393 
102*2103.752393 102*2098.966542 
102*2098.966542 102*2094.180691 
102*2094.180691 102*2089.394840 
102*2089.394840 102*2084.608989 
102*2084.608989 102*2079.823138 
102*2079.823138 102*2075.037287 
102*2075.037287 102*2070.251436 
102*2070.251436 102*2065.465585 
102*2065.465585 102*2060.679734 
102*2060.679734 102*2055.893883 
102*2055.893883 102*2051.108032 
102*2051.108032 102*2046.322181 
102*2046.322181 102*2041.536330 
102*2041.536330 102*2036.750479 
102*2036.750479 102*2031.964628 
102*2031.964628 102*2027.178777 
102*2027.178777 102*2022.392926 
102*2022.392926 102*2017.607074 
102*2017.607074 102*2012.821223 
102*2012.821223 102*2008.035372 
102*2008.035372 102*2003.249521 
102*2003.249521 102*1998.463670 
102*1998.463670 102*1993.677819 
102*1993.677819 102*1988.891968 
102*1988.891968 102*1984.106117 
102*1984.106117 102*1979.320266 
102*1979.320266 102*1974.534415 
102*1974.534415 102*1969.748564 
102*1969.748564 102*1964.962713 
102*1964.962713 102*1960.176862 
102*1960.176862 102*1955.391011 
102*1955.391011 102*1950.605160 
102*1950.605160 102*1945.819309 
102*1945.819309 102*1941.033458 
102*1941.033458 102*1936.247607 
102*1936.247607 102*1931.461756 
102*1931.461756 102*1926.675905 
102*1926.675905 102*1921.890054 
102*1921.890054 102*1917.104203 
102*1917.104203 102*1912.318352 
102*1912.318352 102*1907.532501 
102*1907.532501 102*1902.746650 
102*2146.825052 102*2142.039201 
102*2142.039201 102*2137.253350 
102*2137.253350 102*2132.467499 
102*2132.467499 102*2127.681648 
102*2127.681648 102*2122.895797 
102*2122.895797 102*2118.109946 
102*2118.109946 102*2113.324095 
102*2113.324095 102*2108.538244 
102*2108.538244 102*2103.752393 
102*2103.752393 102*2098.966542 
102*2098.966542 102*2094.180691 
102*2094.180691 102*2089.394840 
102*2089.394840 102*2084.608989 
102*2084.608989 102*2079.823138 
102*2079.823138 102*2075.037287 
102*2075.037287 102*2070.251436 
102*2070.251436 102*2065.465585 
102*2065.465585 102*2060.679734 
102*2060.679734 102*2055.893883 
102*2055.893883 102*2051.108032 
102*2051.108032 102*2046.322181 
102*2046.322181 102*2041.536330 
102*2041.536330 102*2036.750479 
102*2036.750479 102*2031.964628 
102*2031.964628 102*2027.178777 
102*2027.178777 102*2022.392926 
102*2022.392926 102*2017.607074 
102*2017.607074 102*2012.821223 
102*2012.821223 102*2008.035372 
102*2008.035372 102*2003.249521 
102*2003.249521 102*1998.463670 
102*1998.463670 102*1993.677819 
102*1993.677819 102*1988.891968 
102*1988.891968 102*1984.106117 
102*1984.106117 102*1979.320266 
102*1979.320266 102*1974.534415 
102*1974.534415 102*1969.748564 
102*1969.748564 102*1964.962713 
102*1964.962713 102*1960.176862 
102*1960.176862 102*1955.391011 
102*1955.391011 102*1950.605160 
102*1950.605160 102*1945.819309 
102*1945.819309 102*1941.033458 
102*1941.033458 102*1936.247607 
102*1936.247607 102*1931.461756 
102*1931.461756 102*1926.675905 
102*1926.675905 102*1921.890054 
102*1921.890054 102*1917.104203 
102*1917.104203 102*1912.318352 
102*1912.318352 102*1907.532501 
102*1907.532501 102*1902.746650 
102*2149.325052 102*2144.539201 
102*2144.539201 102*2139.753350 
102*2139.753350 102*2134.967499 
102*2134.967499 102*2130.181648 
102*2130.181648 102*2125.395797 
102*2125.395797 102*2120.609946 
102*2120.609946 102*2115.824095 
102*2115.824095 102*2111.038244 
102*2111.038244 102*2106.252393 
102*2106.252393 102*2101.466542 
102*2101.466542 102*2096.680691 
102*2096.680691 102*2091.894840 
102*2091.894840 102*2087.108989 
102*2087.108989 102*2082.323138 
102*2082.323138 102*2077.537287 
102*2077.537287 102*2072.751436 
102*2072.751436 102*2067.965585 
102*2067.965585 102*2063.179734 
102*2063.179734 102*2058.393883 
102*2058.393883 102*2053.608032 
102*2053.608032 102*2048.822181 
102*2048.822181 102*2044.036330 
102*2044.036330 102*2039.250479 
102*2039.250479 102*2034.464628 
102*2034.464628 102*2029.678777 
102*2029.678777 102*2024.892926 
102*2024.892926 102*2020.107074 
102*2020.107074 102*2015.321223 
102*2015.321223 102*2010.535372 
102*2010.535372 102*2005.749521 
102*2005.749521 102*2000.963670 
102*2000.963670 102*1996.177819 
102*1996.177819 102*1991.391968 
102*1991.391968 102*1986.606117 
102*1986.606117 102*1981.820266 
102*1981.820266 102*1977.034415 
102*1977.034415 102*1972.248564 
102*1972.248564 102*1967.462713 
102*1967.462713 102*1962.676862 
102*1962.676862 102*1957.891011 
102*1957.891011 102*1953.105160 