ZCORN
102*2132.388477 102*2127.392686 
102*2127.392686 102*2122.396894 
102*2122.396894 102*2117.401103 
102*2117.401103 102*2112.405311 
102*2112.405311 102*2107.409519 
102*2107.409519 102*2102.413728 
102*2102.413728 102*2097.417936 
102*2097.417936 102*2092.422145 
102*2092.422145 102*2087.426353 
102*2087.426353 102*2082.430561 
102*2082.430561 102*2077.434770 
102*2077.434770 102*2072.438978 
102*2072.438978 102*2067.443187 
102*2067.443187 102*2062.447395 
102*2062.447395 102*2057.451603 
102*2057.451603 102*2052.455812 
102*2052.455812 102*2047.460020 
102*2047.460020 102*2042.464229 
102*2042.464229 102*2037.468437 
102*2037.468437 102*2032.472645 
102*2032.472645 102*2027.476854 
102*2027.476854 102*2022.481062 
102*2022.481062 102*2017.485271 
102*2017.485271 102*2012.489479 
102*2012.489479 102*2007.493687 
102*2007.493687 102*2002.497896 
102*2002.497896 102*1997.502104 
102*1997.502104 102*1992.506313 
102*1992.506313 102*1987.510521 
102*1987.510521 102*1982.514729 
102*1982.514729 102*1977.518938 
102*1977.518938 102*1972.523146 
102*1972.523146 102*1967.527355 
102*1967.527355 102*1962.531563 
102*1962.531563 102*1957.535771 
102*1957.535771 102*1952.539980 
102*1952.539980 102*1947.544188 
102*1947.544188 102*1942.548397 
102*1942.548397 102*1937.552605 
102*1937.552605 102*1932.556813 
102*1932.556813 102*1927.561022 
102*1927.561022 102*1922.565230 
102*1922.565230 102*1917.569439 
102*1917.569439 102*1912.573647 
102*1912.573647 102*1907.577855 
102*1907.577855 102*1902.582064 
102*1902.582064 102*1897.586272 
102*1897.586272 102*1892.590481 
102*1892.590481 102*1887.594689 
102*1887.594689 102*1882.598897 
102*1882.598897 102*1877.603106 
102*2134.888477 102*2129.892686 
102*2129.892686 102*2124.896894 
102*2124.896894 102*2119.901103 
102*2119.901103 102*2114.905311 
102*2114.905311 102*2109.909519 
102*2109.909519 102*2104.913728 
102*2104.913728 102*2099.917936 
102*2099.917936 102*2094.922145 
102*2094.922145 102*2089.926353 
102*2089.926353 102*2084.930561 
102*2084.930561 102*2079.934770 
102*2079.934770 102*2074.938978 
102*2074.938978 102*2069.943187 
102*2069.943187 102*2064.947395 
102*2064.947395 102*2059.951603 
102*2059.951603 102*2054.955812 
102*2054.955812 102*2049.960020 
102*2049.960020 102*2044.964229 
102*2044.964229 102*2039.968437 
102*2039.968437 102*2034.972645 
102*2034.972645 102*2029.976854 
102*2029.976854 102*2024.981062 
102*2024.981062 102*2019.985271 
102*2019.985271 102*2014.989479 
102*2014.989479 102*2009.993687 
102*2009.993687 102*2004.997896 
102*2004.997896 102*2000.002104 
102*2000.002104 102*1995.006313 
102*1995.006313 102*1990.010521 
102*1990.010521 102*1985.014729 
102*1985.014729 102*1980.018938 
102*1980.018938 102*1975.023146 
102*1975.023146 102*1970.027355 
102*1970.027355 102*1965.031563 
102*1965.031563 102*1960.035771 
102*1960.035771 102*1955.039980 
102*1955.039980 102*1950.044188 
102*1950.044188 102*1945.048397 
102*1945.048397 102*1940.052605 
102*1940.052605 102*1935.056813 
102*1935.056813 102*1930.061022 
102*1930.061022 102*1925.065230 
102*1925.065230 102*1920.069439 
102*1920.069439 102*1915.073647 
102*1915.073647 102*1910.077855 
102*1910.077855 102*1905.082064 
102*1905.082064 102*1900.086272 
102*1900.086272 102*1895.090481 
102*1895.090481 102*1890.094689 
102*1890.094689 102*1885.098897 
102*1885.098897 102*1880.103106 
102*2134.888477 102*2129.892686 
102*2129.892686 102*2124.896894 
102*2124.896894 102*2119.901103 
102*2119.901103 102*2114.905311 
102*2114.905311 102*2109.909519 
102*2109.909519 102*2104.913728 
102*2104.913728 102*2099.917936 
102*2099.917936 102*2094.922145 
102*2094.922145 102*2089.926353 
102*2089.926353 102*2084.930561 
102*2084.930561 102*2079.934770 
102*2079.934770 102*2074.938978 
102*2074.938978 102*2069.943187 
102*2069.943187 102*2064.947395 
102*2064.947395 102*2059.951603 
102*2059.951603 102*2054.955812 
102*2054.955812 102*2049.960020 
102*2049.960020 102*2044.964229 
102*2044.964229 102*2039.968437 
102*2039.968437 102*2034.972645 
102*2034.972645 102*2029.976854 
102*2029.976854 102*2024.981062 
102*2024.981062 102*2019.985271 
102*2019.985271 102*2014.989479 
102*2014.989479 102*2009.993687 
102*2009.993687 102*2004.997896 
102*2004.997896 102*2000.002104 
102*2000.002104 102*1995.006313 
102*1995.006313 102*1990.010521 
102*1990.010521 102*1985.014729 
102*1985.014729 102*1980.018938 
102*1980.018938 102*1975.023146 
102*1975.023146 102*1970.027355 
102*1970.027355 102*1965.031563 
102*1965.031563 102*1960.035771 
102*1960.035771 102*1955.039980 
102*1955.039980 102*1950.044188 
102*1950.044188 102*1945.048397 
102*1945.048397 102*1940.052605 
102*1940.052605 102*1935.056813 
102*1935.056813 102*1930.061022 
102*1930.061022 102*1925.065230 
102*1925.065230 102*1920.069439 
102*1920.069439 102*1915.073647 
102*1915.073647 102*1910.077855 
102*1910.077855 102*1905.082064 
102*1905.082064 102*1900.086272 
102*1900.086272 102*1895.090481 
102*1895.090481 102*1890.094689 
102*1890.094689 102*1885.098897 
102*1885.098897 102*1880.103106 
102*2137.388477 102*2132.392686 
102*2132.392686 102*2127.396894 
102*2127.396894 102*2122.401103 
102*2122.401103 102*2117.405311 
102*2117.405311 102*2112.409519 
102*2112.409519 102*2107.413728 
102*2107.413728 102*2102.417936 
102*2102.417936 102*2097.422145 
102*2097.422145 102*2092.426353 
102*2092.426353 102*2087.430561 
102*2087.430561 102*2082.434770 
102*2082.434770 102*2077.438978 
102*2077.438978 102*2072.443187 
102*2072.443187 102*2067.447395 
102*2067.447395 102*2062.451603 
102*2062.451603 102*2057.455812 
102*2057.455812 102*2052.460020 
102*2052.460020 102*2047.464229 
102*2047.464229 102*2042.468437 
102*2042.468437 102*2037.472645 
102*2037.472645 102*2032.476854 
102*2032.476854 102*2027.481062 
102*2027.481062 102*2022.485271 
102*2022.485271 102*2017.489479 
102*2017.489479 102*2012.493687 
102*2012.493687 102*2007.497896 
102*2007.497896 102*2002.502104 
102*2002.502104 102*1997.506313 
102*1997.506313 102*1992.510521 
102*1992.510521 102*1987.514729 
102*1987.514729 102*1982.518938 
102*1982.518938 102*1977.523146 
102*1977.523146 102*1972.527355 
102*1972.527355 102*1967.531563 
102*1967.531563 102*1962.535771 
102*1962.535771 102*1957.539980 
102*1957.539980 102*1952.544188 
102*1952.544188 102*1947.548397 
102*1947.548397 102*1942.552605 
102*1942.552605 102*1937.556813 
102*1937.556813 102*1932.561022 
102*1932.561022 102*1927.565230 
102*1927.565230 102*1922.569439 
102*1922.569439 102*1917.573647 
102*1917.573647 102*1912.577855 
102*1912.577855 102*1907.582064 
102*1907.582064 102*1902.586272 
102*1902.586272 102*1897.590481 
102*1897.590481 102*1892.594689 
102*1892.594689 102*1887.598897 
102*1887.598897 102*1882.603106 
102*2137.388477 102*2132.392686 
102*2132.392686 102*2127.396894 
102*2127.396894 102*2122.401103 
102*2122.401103 102*2117.405311 
102*2117.405311 102*2112.409519 
102*2112.409519 102*2107.413728 
102*2107.413728 102*2102.417936 
102*2102.417936 102*2097.422145 
102*2097.422145 102*2092.426353 
102*2092.426353 102*2087.430561 
102*2087.430561 102*2082.434770 
102*2082.434770 102*2077.438978 
102*2077.438978 102*2072.443187 
102*2072.443187 102*2067.447395 
102*2067.447395 102*2062.451603 
102*2062.451603 102*2057.455812 
102*2057.455812 102*2052.460020 
102*2052.460020 102*2047.464229 
102*2047.464229 102*2042.468437 
102*2042.468437 102*2037.472645 
102*2037.472645 102*2032.476854 
102*2032.476854 102*2027.481062 
102*2027.481062 102*2022.485271 
102*2022.485271 102*2017.489479 
102*2017.489479 102*2012.493687 
102*2012.493687 102*2007.497896 
102*2007.497896 102*2002.502104 
102*2002.502104 102*1997.506313 
102*1997.506313 102*1992.510521 
102*1992.510521 102*1987.514729 
102*1987.514729 102*1982.518938 
102*1982.518938 102*1977.523146 
102*1977.523146 102*1972.527355 
102*1972.527355 102*1967.531563 
102*1967.531563 102*1962.535771 
102*1962.535771 102*1957.539980 
102*1957.539980 102*1952.544188 
102*1952.544188 102*1947.548397 
102*1947.548397 102*1942.552605 
102*1942.552605 102*1937.556813 
102*1937.556813 102*1932.561022 
102*1932.561022 102*1927.565230 
102*1927.565230 102*1922.569439 
102*1922.569439 102*1917.573647 
102*1917.573647 102*1912.577855 
102*1912.577855 102*1907.582064 
102*1907.582064 102*1902.586272 
102*1902.586272 102*1897.590481 
102*1897.590481 102*1892.594689 
102*1892.594689 102*1887.598897 
102*1887.598897 102*1882.603106 
102*2139.888477 102*2134.892686 
102*2134.892686 102*2129.896894 
102*2129.896894 102*2124.901103 
102*2124.901103 102*2119.905311 
102*2119.905311 102*2114.909519 
102*2114.909519 102*2109.913728 
102*2109.913728 102*2104.917936 
102*2104.917936 102*2099.922145 
102*2099.922145 102*2094.926353 
102*2094.926353 102*2089.930561 
102*2089.930561 102*2084.934770 
102*2084.934770 102*2079.938978 
102*2079.938978 102*2074.943187 
102*2074.943187 102*2069.947395 
102*2069.947395 102*2064.951603 
102*2064.951603 102*2059.955812 
102*2059.955812 102*2054.960020 
102*2054.960020 102*2049.964229 
102*2049.964229 102*2044.968437 
102*2044.968437 102*2039.972645 
102*2039.972645 102*2034.976854 
102*2034.976854 102*2029.981062 
102*2029.981062 102*2024.985271 
102*2024.985271 102*2019.989479 
102*2019.989479 102*2014.993687 
102*2014.993687 102*2009.997896 
102*2009.997896 102*2005.002104 
102*2005.002104 102*2000.006313 
102*2000.006313 102*1995.010521 
102*1995.010521 102*1990.014729 
102*1990.014729 102*1985.018938 
102*1985.018938 102*1980.023146 
102*1980.023146 102*1975.027355 
102*1975.027355 102*1970.031563 
102*1970.031563 102*1965.035771 
102*1965.035771 102*1960.039980 
102*1960.039980 102*1955.044188 
102*1955.044188 102*1950.048397 
102*1950.048397 102*1945.052605 
102*1945.052605 102*1940.056813 
102*1940.056813 102*1935.061022 
102*1935.061022 102*1930.065230 
102*1930.065230 102*1925.069439 
102*1925.069439 102*1920.073647 
102*1920.073647 102*1915.077855 
102*1915.077855 102*1910.082064 
102*1910.082064 102*1905.086272 
102*1905.086272 102*1900.090481 
102*1900.090481 102*1895.094689 
102*1895.094689 102*1890.098897 
102*1890.098897 102*1885.103106 
102*2139.888477 102*2134.892686 
102*2134.892686 102*2129.896894 
102*2129.896894 102*2124.901103 
102*2124.901103 102*2119.905311 
102*2119.905311 102*2114.909519 
102*2114.909519 102*2109.913728 
102*2109.913728 102*2104.917936 
102*2104.917936 102*2099.922145 
102*2099.922145 102*2094.926353 
102*2094.926353 102*2089.930561 
102*2089.930561 102*2084.934770 
102*2084.934770 102*2079.938978 
102*2079.938978 102*2074.943187 
102*2074.943187 102*2069.947395 
102*2069.947395 102*2064.951603 
102*2064.951603 102*2059.955812 
102*2059.955812 102*2054.960020 
102*2054.960020 102*2049.964229 
102*2049.964229 102*2044.968437 
102*2044.968437 102*2039.972645 
102*2039.972645 102*2034.976854 
102*2034.976854 102*2029.981062 
102*2029.981062 102*2024.985271 
102*2024.985271 102*2019.989479 
102*2019.989479 102*2014.993687 
102*2014.993687 102*2009.997896 
102*2009.997896 102*2005.002104 
102*2005.002104 102*2000.006313 
102*2000.006313 102*1995.010521 
102*1995.010521 102*1990.014729 
102*1990.014729 102*1985.018938 
102*1985.018938 102*1980.023146 
102*1980.023146 102*1975.027355 
102*1975.027355 102*1970.031563 
102*1970.031563 102*1965.035771 
102*1965.035771 102*1960.039980 
102*1960.039980 102*1955.044188 
102*1955.044188 102*1950.048397 
102*1950.048397 102*1945.052605 
102*1945.052605 102*1940.056813 
102*1940.056813 102*1935.061022 
102*1935.061022 102*1930.065230 
102*1930.065230 102*1925.069439 
102*1925.069439 102*1920.073647 
102*1920.073647 102*1915.077855 
102*1915.077855 102*1910.082064 
102*1910.082064 102*1905.086272 
102*1905.086272 102*1900.090481 
102*1900.090481 102*1895.094689 
102*1895.094689 102*1890.098897 
102*1890.098897 102*1885.103106 
102*2142.388477 102*2137.392686 
102*2137.392686 102*2132.396894 
102*2132.396894 102*2127.401103 
102*2127.401103 102*2122.405311 
102*2122.405311 102*2117.409519 
102*2117.409519 102*2112.413728 
102*2112.413728 102*2107.417936 
102*2107.417936 102*2102.422145 
102*2102.422145 102*2097.426353 
102*2097.426353 102*2092.430561 
102*2092.430561 102*2087.434770 
102*2087.434770 102*2082.438978 
102*2082.438978 102*2077.443187 
102*2077.443187 102*2072.447395 
102*2072.447395 102*2067.451603 
102*2067.451603 102*2062.455812 
102*2062.455812 102*2057.460020 
102*2057.460020 102*2052.464229 
102*2052.464229 102*2047.468437 
102*2047.468437 102*2042.472645 
102*2042.472645 102*2037.476854 
102*2037.476854 102*2032.481062 
102*2032.481062 102*2027.485271 
102*2027.485271 102*2022.489479 
102*2022.489479 102*2017.493687 
102*2017.493687 102*2012.497896 
102*2012.497896 102*2007.502104 
102*2007.502104 102*2002.506313 
102*2002.506313 102*1997.510521 
102*1997.510521 102*1992.514729 
102*1992.514729 102*1987.518938 
102*1987.518938 102*1982.523146 
102*1982.523146 102*1977.527355 
102*1977.527355 102*1972.531563 
102*1972.531563 102*1967.535771 
102*1967.535771 102*1962.539980 
102*1962.539980 102*1957.544188 
102*1957.544188 102*1952.548397 
102*1952.548397 102*1947.552605 
102*1947.552605 102*1942.556813 
102*1942.556813 102*1937.561022 
102*1937.561022 102*1932.565230 
102*1932.565230 102*1927.569439 
102*1927.569439 102*1922.573647 
102*1922.573647 102*1917.577855 
102*1917.577855 102*1912.582064 
102*1912.582064 102*1907.586272 
102*1907.586272 102*1902.590481 
102*1902.590481 102*1897.594689 
102*1897.594689 102*1892.598897 
102*1892.598897 102*1887.603106 
102*2142.388477 102*2137.392686 
102*2137.392686 102*2132.396894 
102*2132.396894 102*2127.401103 
102*2127.401103 102*2122.405311 
102*2122.405311 102*2117.409519 
102*2117.409519 102*2112.413728 
102*2112.413728 102*2107.417936 
102*2107.417936 102*2102.422145 
102*2102.422145 102*2097.426353 
102*2097.426353 102*2092.430561 
102*2092.430561 102*2087.434770 
102*2087.434770 102*2082.438978 
102*2082.438978 102*2077.443187 
102*2077.443187 102*2072.447395 
102*2072.447395 102*2067.451603 
102*2067.451603 102*2062.455812 
102*2062.455812 102*2057.460020 
102*2057.460020 102*2052.464229 
102*2052.464229 102*2047.468437 
102*2047.468437 102*2042.472645 
102*2042.472645 102*2037.476854 
102*2037.476854 102*2032.481062 
102*2032.481062 102*2027.485271 
102*2027.485271 102*2022.489479 
102*2022.489479 102*2017.493687 
102*2017.493687 102*2012.497896 
102*2012.497896 102*2007.502104 
102*2007.502104 102*2002.506313 
102*2002.506313 102*1997.510521 
102*1997.510521 102*1992.514729 
102*1992.514729 102*1987.518938 
102*1987.518938 102*1982.523146 
102*1982.523146 102*1977.527355 
102*1977.527355 102*1972.531563 
102*1972.531563 102*1967.535771 
102*1967.535771 102*1962.539980 
102*1962.539980 102*1957.544188 
102*1957.544188 102*1952.548397 
102*1952.548397 102*1947.552605 
102*1947.552605 102*1942.556813 
102*1942.556813 102*1937.561022 
102*1937.561022 102*1932.565230 
102*1932.565230 102*1927.569439 
102*1927.569439 102*1922.573647 
102*1922.573647 102*1917.577855 
102*1917.577855 102*1912.582064 
102*1912.582064 102*1907.586272 
102*1907.586272 102*1902.590481 
102*1902.590481 102*1897.594689 
102*1897.594689 102*1892.598897 
102*1892.598897 102*1887.603106 
102*2144.888477 102*2139.892686 
102*2139.892686 102*2134.896894 
102*2134.896894 102*2129.901103 
102*2129.901103 102*2124.905311 
102*2124.905311 102*2119.909519 
102*2119.909519 102*2114.913728 
102*2114.913728 102*2109.917936 
102*2109.917936 102*2104.922145 
102*2104.922145 102*2099.926353 
102*2099.926353 102*2094.930561 
102*2094.930561 102*2089.934770 
102*2089.934770 102*2084.938978 
102*2084.938978 102*2079.943187 
102*2079.943187 102*2074.947395 
102*2074.947395 102*2069.951603 
102*2069.951603 102*2064.955812 
102*2064.955812 102*2059.960020 
102*2059.960020 102*2054.964229 
102*2054.964229 102*2049.968437 
102*2049.968437 102*2044.972645 
102*2044.972645 102*2039.976854 
102*2039.976854 102*2034.981062 
102*2034.981062 102*2029.985271 
102*2029.985271 102*2024.989479 
102*2024.989479 102*2019.993687 
102*2019.993687 102*2014.997896 
102*2014.997896 102*2010.002104 
102*2010.002104 102*2005.006313 
102*2005.006313 102*2000.010521 
102*2000.010521 102*1995.014729 
102*1995.014729 102*1990.018938 
102*1990.018938 102*1985.023146 
102*1985.023146 102*1980.027355 
102*1980.027355 102*1975.031563 
102*1975.031563 102*1970.035771 
102*1970.035771 102*1965.039980 
102*1965.039980 102*1960.044188 
102*1960.044188 102*1955.048397 
102*1955.048397 102*1950.052605 
102*1950.052605 102*1945.056813 
102*1945.056813 102*1940.061022 
102*1940.061022 102*1935.065230 
102*1935.065230 102*1930.069439 
102*1930.069439 102*1925.073647 
102*1925.073647 102*1920.077855 
102*1920.077855 102*1915.082064 
102*1915.082064 102*1910.086272 
102*1910.086272 102*1905.090481 
102*1905.090481 102*1900.094689 
102*1900.094689 102*1895.098897 
102*1895.098897 102*1890.103106 
102*2144.888477 102*2139.892686 
102*2139.892686 102*2134.896894 
102*2134.896894 102*2129.901103 
102*2129.901103 102*2124.905311 
102*2124.905311 102*2119.909519 
102*2119.909519 102*2114.913728 
102*2114.913728 102*2109.917936 
102*2109.917936 102*2104.922145 
102*2104.922145 102*2099.926353 
102*2099.926353 102*2094.930561 
102*2094.930561 102*2089.934770 
102*2089.934770 102*2084.938978 
102*2084.938978 102*2079.943187 
102*2079.943187 102*2074.947395 
102*2074.947395 102*2069.951603 
102*2069.951603 102*2064.955812 
102*2064.955812 102*2059.960020 
102*2059.960020 102*2054.964229 
102*2054.964229 102*2049.968437 
102*2049.968437 102*2044.972645 
102*2044.972645 102*2039.976854 
102*2039.976854 102*2034.981062 
102*2034.981062 102*2029.985271 
102*2029.985271 102*2024.989479 
102*2024.989479 102*2019.993687 
102*2019.993687 102*2014.997896 
102*2014.997896 102*2010.002104 
102*2010.002104 102*2005.006313 
102*2005.006313 102*2000.010521 
102*2000.010521 102*1995.014729 
102*1995.014729 102*1990.018938 
102*1990.018938 102*1985.023146 
102*1985.023146 102*1980.027355 
102*1980.027355 102*1975.031563 
102*1975.031563 102*1970.035771 
102*1970.035771 102*1965.039980 
102*1965.039980 102*1960.044188 
102*1960.044188 102*1955.048397 
102*1955.048397 102*1950.052605 
102*1950.052605 102*1945.056813 
102*1945.056813 102*1940.061022 
102*1940.061022 102*1935.065230 
102*1935.065230 102*1930.069439 
102*1930.069439 102*1925.073647 
102*1925.073647 102*1920.077855 
102*1920.077855 102*1915.082064 
102*1915.082064 102*1910.086272 
102*1910.086272 102*1905.090481 
102*1905.090481 102*1900.094689 
102*1900.094689 102*1895.098897 
102*1895.098897 102*1890.103106 
102*2147.388477 102*2142.392686 
102*2142.392686 102*2137.396894 
102*2137.396894 102*2132.401103 
102*2132.401103 102*2127.405311 
102*2127.405311 102*2122.409519 
102*2122.409519 102*2117.413728 
102*2117.413728 102*2112.417936 
102*2112.417936 102*2107.422145 
102*2107.422145 102*2102.426353 
102*2102.426353 102*2097.430561 
102*2097.430561 102*2092.434770 
102*2092.434770 102*2087.438978 
102*2087.438978 102*2082.443187 
102*2082.443187 102*2077.447395 
102*2077.447395 102*2072.451603 
102*2072.451603 102*2067.455812 
102*2067.455812 102*2062.460020 
102*2062.460020 102*2057.464229 
102*2057.464229 102*2052.468437 
102*2052.468437 102*2047.472645 
102*2047.472645 102*2042.476854 
102*2042.476854 102*2037.481062 
102*2037.481062 102*2032.485271 
102*2032.485271 102*2027.489479 
102*2027.489479 102*2022.493687 
102*2022.493687 102*2017.497896 
102*2017.497896 102*2012.502104 
102*2012.502104 102*2007.506313 
102*2007.506313 102*2002.510521 
102*2002.510521 102*1997.514729 
102*1997.514729 102*1992.518938 
102*1992.518938 102*1987.523146 
102*1987.523146 102*1982.527355 
102*1982.527355 102*1977.531563 
102*1977.531563 102*1972.535771 
102*1972.535771 102*1967.539980 
102*1967.539980 102*1962.544188 
102*1962.544188 102*1957.548397 
102*1957.548397 102*1952.552605 
102*1952.552605 102*1947.556813 
102*1947.556813 102*1942.561022 
102*1942.561022 102*1937.565230 
102*1937.565230 102*1932.569439 
102*1932.569439 102*1927.573647 
102*1927.573647 102*1922.577855 
102*1922.577855 102*1917.582064 
102*1917.582064 102*1912.586272 
102*1912.586272 102*1907.590481 
102*1907.590481 102*1902.594689 
102*1902.594689 102*1897.598897 
102*1897.598897 102*1892.603106 
102*2147.388477 102*2142.392686 
102*2142.392686 102*2137.396894 
102*2137.396894 102*2132.401103 
102*2132.401103 102*2127.405311 
102*2127.405311 102*2122.409519 
102*2122.409519 102*2117.413728 
102*2117.413728 102*2112.417936 
102*2112.417936 102*2107.422145 
102*2107.422145 102*2102.426353 
102*2102.426353 102*2097.430561 
102*2097.430561 102*2092.434770 
102*2092.434770 102*2087.438978 
102*2087.438978 102*2082.443187 
102*2082.443187 102*2077.447395 
102*2077.447395 102*2072.451603 
102*2072.451603 102*2067.455812 
102*2067.455812 102*2062.460020 
102*2062.460020 102*2057.464229 
102*2057.464229 102*2052.468437 
102*2052.468437 102*2047.472645 
102*2047.472645 102*2042.476854 
102*2042.476854 102*2037.481062 
102*2037.481062 102*2032.485271 
102*2032.485271 102*2027.489479 
102*2027.489479 102*2022.493687 
102*2022.493687 102*2017.497896 
102*2017.497896 102*2012.502104 
102*2012.502104 102*2007.506313 
102*2007.506313 102*2002.510521 
102*2002.510521 102*1997.514729 
102*1997.514729 102*1992.518938 
102*1992.518938 102*1987.523146 
102*1987.523146 102*1982.527355 
102*1982.527355 102*1977.531563 
102*1977.531563 102*1972.535771 
102*1972.535771 102*1967.539980 
102*1967.539980 102*1962.544188 
102*1962.544188 102*1957.548397 
102*1957.548397 102*1952.552605 
102*1952.552605 102*1947.556813 
102*1947.556813 102*1942.561022 
102*1942.561022 102*1937.565230 
102*1937.565230 102*1932.569439 
102*1932.569439 102*1927.573647 
102*1927.573647 102*1922.577855 
102*1922.577855 102*1917.582064 
102*1917.582064 102*1912.586272 
102*1912.586272 102*1907.590481 
102*1907.590481 102*1902.594689 
102*1902.594689 102*1897.598897 
102*1897.598897 102*1892.603106 
102*2149.888477 102*2144.892686 
102*2144.892686 102*2139.896894 
102*2139.896894 102*2134.901103 
102*2134.901103 102*2129.905311 
102*2129.905311 102*2124.909519 
102*2124.909519 102*2119.913728 
102*2119.913728 102*2114.917936 
102*2114.917936 102*2109.922145 
102*2109.922145 102*2104.926353 
102*2104.926353 102*2099.930561 
102*2099.930561 102*2094.934770 
102*2094.934770 102*2089.938978 
102*2089.938978 102*2084.943187 
102*2084.943187 102*2079.947395 
102*2079.947395 102*2074.951603 
102*2074.951603 102*2069.955812 
102*2069.955812 102*2064.960020 
102*2064.960020 102*2059.964229 
102*2059.964229 102*2054.968437 
102*2054.968437 102*2049.972645 
102*2049.972645 102*2044.976854 
102*2044.976854 102*2039.981062 
102*2039.981062 102*2034.985271 
102*2034.985271 102*2029.989479 
102*2029.989479 102*2024.993687 
102*2024.993687 102*2019.997896 
102*2019.997896 102*2015.002104 
102*2015.002104 102*2010.006313 
102*2010.006313 102*2005.010521 
102*2005.010521 102*2000.014729 
102*2000.014729 102*1995.018938 
102*1995.018938 102*1990.023146 
102*1990.023146 102*1985.027355 
102*1985.027355 102*1980.031563 
102*1980.031563 102*1975.035771 
102*1975.035771 102*1970.039980 
102*1970.039980 102*1965.044188 
102*1965.044188 102*1960.048397 
102*1960.048397 102*1955.052605 
102*1955.052605 102*1950.056813 
102*1950.056813 102*1945.061022 
102*1945.061022 102*1940.065230 
102*1940.065230 102*1935.069439 
102*1935.069439 102*1930.073647 
102*1930.073647 102*1925.077855 
102*1925.077855 102*1920.082064 
102*1920.082064 102*1915.086272 
102*1915.086272 102*1910.090481 
102*1910.090481 102*1905.094689 
102*1905.094689 102*1900.098897 
102*1900.098897 102*1895.103106 
102*2149.888477 102*2144.892686 
102*2144.892686 102*2139.896894 
102*2139.896894 102*2134.901103 
102*2134.901103 102*2129.905311 
102*2129.905311 102*2124.909519 
102*2124.909519 102*2119.913728 
102*2119.913728 102*2114.917936 
102*2114.917936 102*2109.922145 
102*2109.922145 102*2104.926353 
102*2104.926353 102*2099.930561 
102*2099.930561 102*2094.934770 
102*2094.934770 102*2089.938978 
102*2089.938978 102*2084.943187 
102*2084.943187 102*2079.947395 
102*2079.947395 102*2074.951603 
102*2074.951603 102*2069.955812 
102*2069.955812 102*2064.960020 
102*2064.960020 102*2059.964229 
102*2059.964229 102*2054.968437 
102*2054.968437 102*2049.972645 
102*2049.972645 102*2044.976854 
102*2044.976854 102*2039.981062 
102*2039.981062 102*2034.985271 
102*2034.985271 102*2029.989479 
102*2029.989479 102*2024.993687 
102*2024.993687 102*2019.997896 
102*2019.997896 102*2015.002104 
102*2015.002104 102*2010.006313 
102*2010.006313 102*2005.010521 
102*2005.010521 102*2000.014729 
102*2000.014729 102*1995.018938 
102*1995.018938 102*1990.023146 
102*1990.023146 102*1985.027355 
102*1985.027355 102*1980.031563 
102*1980.031563 102*1975.035771 
102*1975.035771 102*1970.039980 
102*1970.039980 102*1965.044188 
102*1965.044188 102*1960.048397 
102*1960.048397 102*1955.052605 
102*1955.052605 102*1950.056813 
102*1950.056813 102*1945.061022 
102*1945.061022 102*1940.065230 
102*1940.065230 102*1935.069439 
102*1935.069439 102*1930.073647 
102*1930.073647 102*1925.077855 
102*1925.077855 102*1920.082064 
102*1920.082064 102*1915.086272 
102*1915.086272 102*1910.090481 
102*1910.090481 102*1905.094689 
102*1905.094689 102*1900.098897 
102*1900.098897 102*1895.103106 
102*2152.388477 102*2147.392686 
102*2147.392686 102*2142.396894 
102*2142.396894 102*2137.401103 
102*2137.401103 102*2132.405311 
102*2132.405311 102*2127.409519 
102*2127.409519 102*2122.413728 
102*2122.413728 102*2117.417936 
102*2117.417936 102*2112.422145 
102*2112.422145 102*2107.426353 
102*2107.426353 102*2102.430561 
102*2102.430561 102*2097.434770 
102*2097.434770 102*2092.438978 
102*2092.438978 102*2087.443187 
102*2087.443187 102*2082.447395 
102*2082.447395 102*2077.451603 
102*2077.451603 102*2072.455812 
102*2072.455812 102*2067.460020 
102*2067.460020 102*2062.464229 
102*2062.464229 102*2057.468437 
102*2057.468437 102*2052.472645 
102*2052.472645 102*2047.476854 
102*2047.476854 102*2042.481062 
102*2042.481062 102*2037.485271 
102*2037.485271 102*2032.489479 
102*2032.489479 102*2027.493687 
102*2027.493687 102*2022.497896 
102*2022.497896 102*2017.502104 
102*2017.502104 102*2012.506313 
102*2012.506313 102*2007.510521 
102*2007.510521 102*2002.514729 
102*2002.514729 102*1997.518938 
102*1997.518938 102*1992.523146 
102*1992.523146 102*1987.527355 
102*1987.527355 102*1982.531563 
102*1982.531563 102*1977.535771 
102*1977.535771 102*1972.539980 
102*1972.539980 102*1967.544188 
102*1967.544188 102*1962.548397 
102*1962.548397 102*1957.552605 
102*1957.552605 102*1952.556813 
102*1952.556813 102*1947.561022 
102*1947.561022 102*1942.565230 
102*1942.565230 102*1937.569439 
102*1937.569439 102*1932.573647 
102*1932.573647 102*1927.577855 
102*1927.577855 102*1922.582064 
102*1922.582064 102*1917.586272 
102*1917.586272 102*1912.590481 
102*1912.590481 102*1907.594689 
102*1907.594689 102*1902.598897 
102*1902.598897 102*1897.603106 
102*2152.388477 102*2147.392686 
102*2147.392686 102*2142.396894 
102*2142.396894 102*2137.401103 
102*2137.401103 102*2132.405311 
102*2132.405311 102*2127.409519 
102*2127.409519 102*2122.413728 
102*2122.413728 102*2117.417936 
102*2117.417936 102*2112.422145 
102*2112.422145 102*2107.426353 
102*2107.426353 102*2102.430561 
102*2102.430561 102*2097.434770 
102*2097.434770 102*2092.438978 
102*2092.438978 102*2087.443187 
102*2087.443187 102*2082.447395 
102*2082.447395 102*2077.451603 
102*2077.451603 102*2072.455812 
102*2072.455812 102*2067.460020 
102*2067.460020 102*2062.464229 
102*2062.464229 102*2057.468437 
102*2057.468437 102*2052.472645 
102*2052.472645 102*2047.476854 
102*2047.476854 102*2042.481062 
102*2042.481062 102*2037.485271 
102*2037.485271 102*2032.489479 
102*2032.489479 102*2027.493687 
102*2027.493687 102*2022.497896 
102*2022.497896 102*2017.502104 
102*2017.502104 102*2012.506313 
102*2012.506313 102*2007.510521 
102*2007.510521 102*2002.514729 
102*2002.514729 102*1997.518938 
102*1997.518938 102*1992.523146 
102*1992.523146 102*1987.527355 
102*1987.527355 102*1982.531563 
102*1982.531563 102*1977.535771 
102*1977.535771 102*1972.539980 
102*1972.539980 102*1967.544188 
102*1967.544188 102*1962.548397 
102*1962.548397 102*1957.552605 
102*1957.552605 102*1952.556813 
102*1952.556813 102*1947.561022 
102*1947.561022 102*1942.565230 
102*1942.565230 102*1937.569439 
102*1937.569439 102*1932.573647 
102*1932.573647 102*1927.577855 
102*1927.577855 102*1922.582064 
102*1922.582064 102*1917.586272 
102*1917.586272 102*1912.590481 
102*1912.590481 102*1907.594689 
102*1907.594689 102*1902.598897 
102*1902.598897 102*1897.603106 
102*2154.888477 102*2149.892686 
102*2149.892686 102*2144.896894 
102*2144.896894 102*2139.901103 
102*2139.901103 102*2134.905311 
102*2134.905311 102*2129.909519 
102*2129.909519 102*2124.913728 
102*2124.913728 102*2119.917936 
102*2119.917936 102*2114.922145 
102*2114.922145 102*2109.926353 
102*2109.926353 102*2104.930561 
102*2104.930561 102*2099.934770 
102*2099.934770 102*2094.938978 
102*2094.938978 102*2089.943187 
102*2089.943187 102*2084.947395 
102*2084.947395 102*2079.951603 
102*2079.951603 102*2074.955812 
102*2074.955812 102*2069.960020 
102*2069.960020 102*2064.964229 
102*2064.964229 102*2059.968437 
102*2059.968437 102*2054.972645 
102*2054.972645 102*2049.976854 
102*2049.976854 102*2044.981062 
102*2044.981062 102*2039.985271 
102*2039.985271 102*2034.989479 
102*2034.989479 102*2029.993687 
102*2029.993687 102*2024.997896 
102*2024.997896 102*2020.002104 
102*2020.002104 102*2015.006313 
102*2015.006313 102*2010.010521 
102*2010.010521 102*2005.014729 
102*2005.014729 102*2000.018938 
102*2000.018938 102*1995.023146 
102*1995.023146 102*1990.027355 
102*1990.027355 102*1985.031563 
102*1985.031563 102*1980.035771 
102*1980.035771 102*1975.039980 
102*1975.039980 102*1970.044188 
102*1970.044188 102*1965.048397 
102*1965.048397 102*1960.052605 
102*1960.052605 102*1955.056813 
102*1955.056813 102*1950.061022 