ZCORN
102*2046.255922 102*2044.510416 
102*2044.510416 102*2042.764909 
102*2042.764909 102*2041.019403 
102*2041.019403 102*2039.273896 
102*2039.273896 102*2037.528390 
102*2037.528390 102*2035.782883 
102*2035.782883 102*2034.037377 
102*2034.037377 102*2032.291870 
102*2032.291870 102*2030.546364 
102*2030.546364 102*2028.800857 
102*2028.800857 102*2027.055351 
102*2027.055351 102*2025.309844 
102*2025.309844 102*2023.564338 
102*2023.564338 102*2021.818831 
102*2021.818831 102*2020.073325 
102*2020.073325 102*2018.327818 
102*2018.327818 102*2016.582312 
102*2016.582312 102*2014.836805 
102*2014.836805 102*2013.091299 
102*2013.091299 102*2011.345792 
102*2011.345792 102*2009.600286 
102*2009.600286 102*2007.854779 
102*2007.854779 102*2006.109273 
102*2006.109273 102*2004.363766 
102*2004.363766 102*2002.618260 
102*2002.618260 102*2000.872753 
102*2000.872753 102*1999.127247 
102*1999.127247 102*1997.381740 
102*1997.381740 102*1995.636234 
102*1995.636234 102*1993.890727 
102*1993.890727 102*1992.145221 
102*1992.145221 102*1990.399714 
102*1990.399714 102*1988.654208 
102*1988.654208 102*1986.908701 
102*1986.908701 102*1985.163195 
102*1985.163195 102*1983.417688 
102*1983.417688 102*1981.672182 
102*1981.672182 102*1979.926675 
102*1979.926675 102*1978.181169 
102*1978.181169 102*1976.435662 
102*1976.435662 102*1974.690156 
102*1974.690156 102*1972.944649 
102*1972.944649 102*1971.199143 
102*1971.199143 102*1969.453636 
102*1969.453636 102*1967.708130 
102*1967.708130 102*1965.962623 
102*1965.962623 102*1964.217117 
102*1964.217117 102*1962.471610 
102*1962.471610 102*1960.726104 
102*1960.726104 102*1958.980597 
102*1958.980597 102*1957.235091 
102*2048.755922 102*2047.010416 
102*2047.010416 102*2045.264909 
102*2045.264909 102*2043.519403 
102*2043.519403 102*2041.773896 
102*2041.773896 102*2040.028390 
102*2040.028390 102*2038.282883 
102*2038.282883 102*2036.537377 
102*2036.537377 102*2034.791870 
102*2034.791870 102*2033.046364 
102*2033.046364 102*2031.300857 
102*2031.300857 102*2029.555351 
102*2029.555351 102*2027.809844 
102*2027.809844 102*2026.064338 
102*2026.064338 102*2024.318831 
102*2024.318831 102*2022.573325 
102*2022.573325 102*2020.827818 
102*2020.827818 102*2019.082312 
102*2019.082312 102*2017.336805 
102*2017.336805 102*2015.591299 
102*2015.591299 102*2013.845792 
102*2013.845792 102*2012.100286 
102*2012.100286 102*2010.354779 
102*2010.354779 102*2008.609273 
102*2008.609273 102*2006.863766 
102*2006.863766 102*2005.118260 
102*2005.118260 102*2003.372753 
102*2003.372753 102*2001.627247 
102*2001.627247 102*1999.881740 
102*1999.881740 102*1998.136234 
102*1998.136234 102*1996.390727 
102*1996.390727 102*1994.645221 
102*1994.645221 102*1992.899714 
102*1992.899714 102*1991.154208 
102*1991.154208 102*1989.408701 
102*1989.408701 102*1987.663195 
102*1987.663195 102*1985.917688 
102*1985.917688 102*1984.172182 
102*1984.172182 102*1982.426675 
102*1982.426675 102*1980.681169 
102*1980.681169 102*1978.935662 
102*1978.935662 102*1977.190156 
102*1977.190156 102*1975.444649 
102*1975.444649 102*1973.699143 
102*1973.699143 102*1971.953636 
102*1971.953636 102*1970.208130 
102*1970.208130 102*1968.462623 
102*1968.462623 102*1966.717117 
102*1966.717117 102*1964.971610 
102*1964.971610 102*1963.226104 
102*1963.226104 102*1961.480597 
102*1961.480597 102*1959.735091 
102*2048.755922 102*2047.010416 
102*2047.010416 102*2045.264909 
102*2045.264909 102*2043.519403 
102*2043.519403 102*2041.773896 
102*2041.773896 102*2040.028390 
102*2040.028390 102*2038.282883 
102*2038.282883 102*2036.537377 
102*2036.537377 102*2034.791870 
102*2034.791870 102*2033.046364 
102*2033.046364 102*2031.300857 
102*2031.300857 102*2029.555351 
102*2029.555351 102*2027.809844 
102*2027.809844 102*2026.064338 
102*2026.064338 102*2024.318831 
102*2024.318831 102*2022.573325 
102*2022.573325 102*2020.827818 
102*2020.827818 102*2019.082312 
102*2019.082312 102*2017.336805 
102*2017.336805 102*2015.591299 
102*2015.591299 102*2013.845792 
102*2013.845792 102*2012.100286 
102*2012.100286 102*2010.354779 
102*2010.354779 102*2008.609273 
102*2008.609273 102*2006.863766 
102*2006.863766 102*2005.118260 
102*2005.118260 102*2003.372753 
102*2003.372753 102*2001.627247 
102*2001.627247 102*1999.881740 
102*1999.881740 102*1998.136234 
102*1998.136234 102*1996.390727 
102*1996.390727 102*1994.645221 
102*1994.645221 102*1992.899714 
102*1992.899714 102*1991.154208 
102*1991.154208 102*1989.408701 
102*1989.408701 102*1987.663195 
102*1987.663195 102*1985.917688 
102*1985.917688 102*1984.172182 
102*1984.172182 102*1982.426675 
102*1982.426675 102*1980.681169 
102*1980.681169 102*1978.935662 
102*1978.935662 102*1977.190156 
102*1977.190156 102*1975.444649 
102*1975.444649 102*1973.699143 
102*1973.699143 102*1971.953636 
102*1971.953636 102*1970.208130 
102*1970.208130 102*1968.462623 
102*1968.462623 102*1966.717117 
102*1966.717117 102*1964.971610 
102*1964.971610 102*1963.226104 
102*1963.226104 102*1961.480597 
102*1961.480597 102*1959.735091 
102*2051.255922 102*2049.510416 
102*2049.510416 102*2047.764909 
102*2047.764909 102*2046.019403 
102*2046.019403 102*2044.273896 
102*2044.273896 102*2042.528390 
102*2042.528390 102*2040.782883 
102*2040.782883 102*2039.037377 
102*2039.037377 102*2037.291870 
102*2037.291870 102*2035.546364 
102*2035.546364 102*2033.800857 
102*2033.800857 102*2032.055351 
102*2032.055351 102*2030.309844 
102*2030.309844 102*2028.564338 
102*2028.564338 102*2026.818831 
102*2026.818831 102*2025.073325 
102*2025.073325 102*2023.327818 
102*2023.327818 102*2021.582312 
102*2021.582312 102*2019.836805 
102*2019.836805 102*2018.091299 
102*2018.091299 102*2016.345792 
102*2016.345792 102*2014.600286 
102*2014.600286 102*2012.854779 
102*2012.854779 102*2011.109273 
102*2011.109273 102*2009.363766 
102*2009.363766 102*2007.618260 
102*2007.618260 102*2005.872753 
102*2005.872753 102*2004.127247 
102*2004.127247 102*2002.381740 
102*2002.381740 102*2000.636234 
102*2000.636234 102*1998.890727 
102*1998.890727 102*1997.145221 
102*1997.145221 102*1995.399714 
102*1995.399714 102*1993.654208 
102*1993.654208 102*1991.908701 
102*1991.908701 102*1990.163195 
102*1990.163195 102*1988.417688 
102*1988.417688 102*1986.672182 
102*1986.672182 102*1984.926675 
102*1984.926675 102*1983.181169 
102*1983.181169 102*1981.435662 
102*1981.435662 102*1979.690156 
102*1979.690156 102*1977.944649 
102*1977.944649 102*1976.199143 
102*1976.199143 102*1974.453636 
102*1974.453636 102*1972.708130 
102*1972.708130 102*1970.962623 
102*1970.962623 102*1969.217117 
102*1969.217117 102*1967.471610 
102*1967.471610 102*1965.726104 
102*1965.726104 102*1963.980597 
102*1963.980597 102*1962.235091 
102*2051.255922 102*2049.510416 
102*2049.510416 102*2047.764909 
102*2047.764909 102*2046.019403 
102*2046.019403 102*2044.273896 
102*2044.273896 102*2042.528390 
102*2042.528390 102*2040.782883 
102*2040.782883 102*2039.037377 
102*2039.037377 102*2037.291870 
102*2037.291870 102*2035.546364 
102*2035.546364 102*2033.800857 
102*2033.800857 102*2032.055351 
102*2032.055351 102*2030.309844 
102*2030.309844 102*2028.564338 
102*2028.564338 102*2026.818831 
102*2026.818831 102*2025.073325 
102*2025.073325 102*2023.327818 
102*2023.327818 102*2021.582312 
102*2021.582312 102*2019.836805 
102*2019.836805 102*2018.091299 
102*2018.091299 102*2016.345792 
102*2016.345792 102*2014.600286 
102*2014.600286 102*2012.854779 
102*2012.854779 102*2011.109273 
102*2011.109273 102*2009.363766 
102*2009.363766 102*2007.618260 
102*2007.618260 102*2005.872753 
102*2005.872753 102*2004.127247 
102*2004.127247 102*2002.381740 
102*2002.381740 102*2000.636234 
102*2000.636234 102*1998.890727 
102*1998.890727 102*1997.145221 
102*1997.145221 102*1995.399714 
102*1995.399714 102*1993.654208 
102*1993.654208 102*1991.908701 
102*1991.908701 102*1990.163195 
102*1990.163195 102*1988.417688 
102*1988.417688 102*1986.672182 
102*1986.672182 102*1984.926675 
102*1984.926675 102*1983.181169 
102*1983.181169 102*1981.435662 
102*1981.435662 102*1979.690156 
102*1979.690156 102*1977.944649 
102*1977.944649 102*1976.199143 
102*1976.199143 102*1974.453636 
102*1974.453636 102*1972.708130 
102*1972.708130 102*1970.962623 
102*1970.962623 102*1969.217117 
102*1969.217117 102*1967.471610 
102*1967.471610 102*1965.726104 
102*1965.726104 102*1963.980597 
102*1963.980597 102*1962.235091 
102*2053.755922 102*2052.010416 
102*2052.010416 102*2050.264909 
102*2050.264909 102*2048.519403 
102*2048.519403 102*2046.773896 
102*2046.773896 102*2045.028390 
102*2045.028390 102*2043.282883 
102*2043.282883 102*2041.537377 
102*2041.537377 102*2039.791870 
102*2039.791870 102*2038.046364 
102*2038.046364 102*2036.300857 
102*2036.300857 102*2034.555351 
102*2034.555351 102*2032.809844 
102*2032.809844 102*2031.064338 
102*2031.064338 102*2029.318831 
102*2029.318831 102*2027.573325 
102*2027.573325 102*2025.827818 
102*2025.827818 102*2024.082312 
102*2024.082312 102*2022.336805 
102*2022.336805 102*2020.591299 
102*2020.591299 102*2018.845792 
102*2018.845792 102*2017.100286 
102*2017.100286 102*2015.354779 
102*2015.354779 102*2013.609273 
102*2013.609273 102*2011.863766 
102*2011.863766 102*2010.118260 
102*2010.118260 102*2008.372753 
102*2008.372753 102*2006.627247 
102*2006.627247 102*2004.881740 
102*2004.881740 102*2003.136234 
102*2003.136234 102*2001.390727 
102*2001.390727 102*1999.645221 
102*1999.645221 102*1997.899714 
102*1997.899714 102*1996.154208 
102*1996.154208 102*1994.408701 
102*1994.408701 102*1992.663195 
102*1992.663195 102*1990.917688 
102*1990.917688 102*1989.172182 
102*1989.172182 102*1987.426675 
102*1987.426675 102*1985.681169 
102*1985.681169 102*1983.935662 
102*1983.935662 102*1982.190156 
102*1982.190156 102*1980.444649 
102*1980.444649 102*1978.699143 
102*1978.699143 102*1976.953636 
102*1976.953636 102*1975.208130 
102*1975.208130 102*1973.462623 
102*1973.462623 102*1971.717117 
102*1971.717117 102*1969.971610 
102*1969.971610 102*1968.226104 
102*1968.226104 102*1966.480597 
102*1966.480597 102*1964.735091 
102*2053.755922 102*2052.010416 
102*2052.010416 102*2050.264909 
102*2050.264909 102*2048.519403 
102*2048.519403 102*2046.773896 
102*2046.773896 102*2045.028390 
102*2045.028390 102*2043.282883 
102*2043.282883 102*2041.537377 
102*2041.537377 102*2039.791870 
102*2039.791870 102*2038.046364 
102*2038.046364 102*2036.300857 
102*2036.300857 102*2034.555351 
102*2034.555351 102*2032.809844 
102*2032.809844 102*2031.064338 
102*2031.064338 102*2029.318831 
102*2029.318831 102*2027.573325 
102*2027.573325 102*2025.827818 
102*2025.827818 102*2024.082312 
102*2024.082312 102*2022.336805 
102*2022.336805 102*2020.591299 
102*2020.591299 102*2018.845792 
102*2018.845792 102*2017.100286 
102*2017.100286 102*2015.354779 
102*2015.354779 102*2013.609273 
102*2013.609273 102*2011.863766 
102*2011.863766 102*2010.118260 
102*2010.118260 102*2008.372753 
102*2008.372753 102*2006.627247 
102*2006.627247 102*2004.881740 
102*2004.881740 102*2003.136234 
102*2003.136234 102*2001.390727 
102*2001.390727 102*1999.645221 
102*1999.645221 102*1997.899714 
102*1997.899714 102*1996.154208 
102*1996.154208 102*1994.408701 
102*1994.408701 102*1992.663195 
102*1992.663195 102*1990.917688 
102*1990.917688 102*1989.172182 
102*1989.172182 102*1987.426675 
102*1987.426675 102*1985.681169 
102*1985.681169 102*1983.935662 
102*1983.935662 102*1982.190156 
102*1982.190156 102*1980.444649 
102*1980.444649 102*1978.699143 
102*1978.699143 102*1976.953636 
102*1976.953636 102*1975.208130 
102*1975.208130 102*1973.462623 
102*1973.462623 102*1971.717117 
102*1971.717117 102*1969.971610 
102*1969.971610 102*1968.226104 
102*1968.226104 102*1966.480597 
102*1966.480597 102*1964.735091 
102*2056.255922 102*2054.510416 
102*2054.510416 102*2052.764909 
102*2052.764909 102*2051.019403 
102*2051.019403 102*2049.273896 
102*2049.273896 102*2047.528390 
102*2047.528390 102*2045.782883 
102*2045.782883 102*2044.037377 
102*2044.037377 102*2042.291870 
102*2042.291870 102*2040.546364 
102*2040.546364 102*2038.800857 
102*2038.800857 102*2037.055351 
102*2037.055351 102*2035.309844 
102*2035.309844 102*2033.564338 
102*2033.564338 102*2031.818831 
102*2031.818831 102*2030.073325 
102*2030.073325 102*2028.327818 
102*2028.327818 102*2026.582312 
102*2026.582312 102*2024.836805 
102*2024.836805 102*2023.091299 
102*2023.091299 102*2021.345792 
102*2021.345792 102*2019.600286 
102*2019.600286 102*2017.854779 
102*2017.854779 102*2016.109273 
102*2016.109273 102*2014.363766 
102*2014.363766 102*2012.618260 
102*2012.618260 102*2010.872753 
102*2010.872753 102*2009.127247 
102*2009.127247 102*2007.381740 
102*2007.381740 102*2005.636234 
102*2005.636234 102*2003.890727 
102*2003.890727 102*2002.145221 
102*2002.145221 102*2000.399714 
102*2000.399714 102*1998.654208 
102*1998.654208 102*1996.908701 
102*1996.908701 102*1995.163195 
102*1995.163195 102*1993.417688 
102*1993.417688 102*1991.672182 
102*1991.672182 102*1989.926675 
102*1989.926675 102*1988.181169 
102*1988.181169 102*1986.435662 
102*1986.435662 102*1984.690156 
102*1984.690156 102*1982.944649 
102*1982.944649 102*1981.199143 
102*1981.199143 102*1979.453636 
102*1979.453636 102*1977.708130 
102*1977.708130 102*1975.962623 
102*1975.962623 102*1974.217117 
102*1974.217117 102*1972.471610 
102*1972.471610 102*1970.726104 
102*1970.726104 102*1968.980597 
102*1968.980597 102*1967.235091 
102*2056.255922 102*2054.510416 
102*2054.510416 102*2052.764909 
102*2052.764909 102*2051.019403 
102*2051.019403 102*2049.273896 
102*2049.273896 102*2047.528390 
102*2047.528390 102*2045.782883 
102*2045.782883 102*2044.037377 
102*2044.037377 102*2042.291870 
102*2042.291870 102*2040.546364 
102*2040.546364 102*2038.800857 
102*2038.800857 102*2037.055351 
102*2037.055351 102*2035.309844 
102*2035.309844 102*2033.564338 
102*2033.564338 102*2031.818831 
102*2031.818831 102*2030.073325 
102*2030.073325 102*2028.327818 
102*2028.327818 102*2026.582312 
102*2026.582312 102*2024.836805 
102*2024.836805 102*2023.091299 
102*2023.091299 102*2021.345792 
102*2021.345792 102*2019.600286 
102*2019.600286 102*2017.854779 
102*2017.854779 102*2016.109273 
102*2016.109273 102*2014.363766 
102*2014.363766 102*2012.618260 
102*2012.618260 102*2010.872753 
102*2010.872753 102*2009.127247 
102*2009.127247 102*2007.381740 
102*2007.381740 102*2005.636234 
102*2005.636234 102*2003.890727 
102*2003.890727 102*2002.145221 
102*2002.145221 102*2000.399714 
102*2000.399714 102*1998.654208 
102*1998.654208 102*1996.908701 
102*1996.908701 102*1995.163195 
102*1995.163195 102*1993.417688 
102*1993.417688 102*1991.672182 
102*1991.672182 102*1989.926675 
102*1989.926675 102*1988.181169 
102*1988.181169 102*1986.435662 
102*1986.435662 102*1984.690156 
102*1984.690156 102*1982.944649 
102*1982.944649 102*1981.199143 
102*1981.199143 102*1979.453636 
102*1979.453636 102*1977.708130 
102*1977.708130 102*1975.962623 
102*1975.962623 102*1974.217117 
102*1974.217117 102*1972.471610 
102*1972.471610 102*1970.726104 
102*1970.726104 102*1968.980597 
102*1968.980597 102*1967.235091 
102*2058.755922 102*2057.010416 
102*2057.010416 102*2055.264909 
102*2055.264909 102*2053.519403 
102*2053.519403 102*2051.773896 
102*2051.773896 102*2050.028390 
102*2050.028390 102*2048.282883 
102*2048.282883 102*2046.537377 
102*2046.537377 102*2044.791870 
102*2044.791870 102*2043.046364 
102*2043.046364 102*2041.300857 
102*2041.300857 102*2039.555351 
102*2039.555351 102*2037.809844 
102*2037.809844 102*2036.064338 
102*2036.064338 102*2034.318831 
102*2034.318831 102*2032.573325 
102*2032.573325 102*2030.827818 
102*2030.827818 102*2029.082312 
102*2029.082312 102*2027.336805 
102*2027.336805 102*2025.591299 
102*2025.591299 102*2023.845792 
102*2023.845792 102*2022.100286 
102*2022.100286 102*2020.354779 
102*2020.354779 102*2018.609273 
102*2018.609273 102*2016.863766 
102*2016.863766 102*2015.118260 
102*2015.118260 102*2013.372753 
102*2013.372753 102*2011.627247 
102*2011.627247 102*2009.881740 
102*2009.881740 102*2008.136234 
102*2008.136234 102*2006.390727 
102*2006.390727 102*2004.645221 
102*2004.645221 102*2002.899714 
102*2002.899714 102*2001.154208 
102*2001.154208 102*1999.408701 
102*1999.408701 102*1997.663195 
102*1997.663195 102*1995.917688 
102*1995.917688 102*1994.172182 
102*1994.172182 102*1992.426675 
102*1992.426675 102*1990.681169 
102*1990.681169 102*1988.935662 
102*1988.935662 102*1987.190156 
102*1987.190156 102*1985.444649 
102*1985.444649 102*1983.699143 
102*1983.699143 102*1981.953636 
102*1981.953636 102*1980.208130 
102*1980.208130 102*1978.462623 
102*1978.462623 102*1976.717117 
102*1976.717117 102*1974.971610 
102*1974.971610 102*1973.226104 
102*1973.226104 102*1971.480597 
102*1971.480597 102*1969.735091 
102*2058.755922 102*2057.010416 
102*2057.010416 102*2055.264909 
102*2055.264909 102*2053.519403 
102*2053.519403 102*2051.773896 
102*2051.773896 102*2050.028390 
102*2050.028390 102*2048.282883 
102*2048.282883 102*2046.537377 
102*2046.537377 102*2044.791870 
102*2044.791870 102*2043.046364 
102*2043.046364 102*2041.300857 
102*2041.300857 102*2039.555351 
102*2039.555351 102*2037.809844 
102*2037.809844 102*2036.064338 
102*2036.064338 102*2034.318831 
102*2034.318831 102*2032.573325 
102*2032.573325 102*2030.827818 
102*2030.827818 102*2029.082312 
102*2029.082312 102*2027.336805 
102*2027.336805 102*2025.591299 
102*2025.591299 102*2023.845792 
102*2023.845792 102*2022.100286 
102*2022.100286 102*2020.354779 
102*2020.354779 102*2018.609273 
102*2018.609273 102*2016.863766 
102*2016.863766 102*2015.118260 
102*2015.118260 102*2013.372753 
102*2013.372753 102*2011.627247 
102*2011.627247 102*2009.881740 
102*2009.881740 102*2008.136234 
102*2008.136234 102*2006.390727 
102*2006.390727 102*2004.645221 
102*2004.645221 102*2002.899714 
102*2002.899714 102*2001.154208 
102*2001.154208 102*1999.408701 
102*1999.408701 102*1997.663195 
102*1997.663195 102*1995.917688 
102*1995.917688 102*1994.172182 
102*1994.172182 102*1992.426675 
102*1992.426675 102*1990.681169 
102*1990.681169 102*1988.935662 
102*1988.935662 102*1987.190156 
102*1987.190156 102*1985.444649 
102*1985.444649 102*1983.699143 
102*1983.699143 102*1981.953636 
102*1981.953636 102*1980.208130 
102*1980.208130 102*1978.462623 
102*1978.462623 102*1976.717117 
102*1976.717117 102*1974.971610 
102*1974.971610 102*1973.226104 
102*1973.226104 102*1971.480597 
102*1971.480597 102*1969.735091 
102*2061.255922 102*2059.510416 
102*2059.510416 102*2057.764909 
102*2057.764909 102*2056.019403 
102*2056.019403 102*2054.273896 
102*2054.273896 102*2052.528390 
102*2052.528390 102*2050.782883 
102*2050.782883 102*2049.037377 
102*2049.037377 102*2047.291870 
102*2047.291870 102*2045.546364 
102*2045.546364 102*2043.800857 
102*2043.800857 102*2042.055351 
102*2042.055351 102*2040.309844 
102*2040.309844 102*2038.564338 
102*2038.564338 102*2036.818831 
102*2036.818831 102*2035.073325 
102*2035.073325 102*2033.327818 
102*2033.327818 102*2031.582312 
102*2031.582312 102*2029.836805 
102*2029.836805 102*2028.091299 
102*2028.091299 102*2026.345792 
102*2026.345792 102*2024.600286 
102*2024.600286 102*2022.854779 
102*2022.854779 102*2021.109273 
102*2021.109273 102*2019.363766 
102*2019.363766 102*2017.618260 
102*2017.618260 102*2015.872753 
102*2015.872753 102*2014.127247 
102*2014.127247 102*2012.381740 
102*2012.381740 102*2010.636234 
102*2010.636234 102*2008.890727 
102*2008.890727 102*2007.145221 
102*2007.145221 102*2005.399714 
102*2005.399714 102*2003.654208 
102*2003.654208 102*2001.908701 
102*2001.908701 102*2000.163195 
102*2000.163195 102*1998.417688 
102*1998.417688 102*1996.672182 
102*1996.672182 102*1994.926675 
102*1994.926675 102*1993.181169 
102*1993.181169 102*1991.435662 
102*1991.435662 102*1989.690156 
102*1989.690156 102*1987.944649 
102*1987.944649 102*1986.199143 
102*1986.199143 102*1984.453636 
102*1984.453636 102*1982.708130 
102*1982.708130 102*1980.962623 
102*1980.962623 102*1979.217117 
102*1979.217117 102*1977.471610 
102*1977.471610 102*1975.726104 
102*1975.726104 102*1973.980597 
102*1973.980597 102*1972.235091 
102*2061.255922 102*2059.510416 
102*2059.510416 102*2057.764909 
102*2057.764909 102*2056.019403 
102*2056.019403 102*2054.273896 
102*2054.273896 102*2052.528390 
102*2052.528390 102*2050.782883 
102*2050.782883 102*2049.037377 
102*2049.037377 102*2047.291870 
102*2047.291870 102*2045.546364 
102*2045.546364 102*2043.800857 
102*2043.800857 102*2042.055351 
102*2042.055351 102*2040.309844 
102*2040.309844 102*2038.564338 
102*2038.564338 102*2036.818831 
102*2036.818831 102*2035.073325 
102*2035.073325 102*2033.327818 
102*2033.327818 102*2031.582312 
102*2031.582312 102*2029.836805 
102*2029.836805 102*2028.091299 
102*2028.091299 102*2026.345792 
102*2026.345792 102*2024.600286 
102*2024.600286 102*2022.854779 
102*2022.854779 102*2021.109273 
102*2021.109273 102*2019.363766 
102*2019.363766 102*2017.618260 
102*2017.618260 102*2015.872753 
102*2015.872753 102*2014.127247 
102*2014.127247 102*2012.381740 
102*2012.381740 102*2010.636234 
102*2010.636234 102*2008.890727 
102*2008.890727 102*2007.145221 
102*2007.145221 102*2005.399714 
102*2005.399714 102*2003.654208 
102*2003.654208 102*2001.908701 
102*2001.908701 102*2000.163195 
102*2000.163195 102*1998.417688 
102*1998.417688 102*1996.672182 
102*1996.672182 102*1994.926675 
102*1994.926675 102*1993.181169 
102*1993.181169 102*1991.435662 
102*1991.435662 102*1989.690156 
102*1989.690156 102*1987.944649 
102*1987.944649 102*1986.199143 
102*1986.199143 102*1984.453636 
102*1984.453636 102*1982.708130 
102*1982.708130 102*1980.962623 
102*1980.962623 102*1979.217117 
102*1979.217117 102*1977.471610 
102*1977.471610 102*1975.726104 
102*1975.726104 102*1973.980597 
102*1973.980597 102*1972.235091 
102*2063.755922 102*2062.010416 
102*2062.010416 102*2060.264909 
102*2060.264909 102*2058.519403 
102*2058.519403 102*2056.773896 
102*2056.773896 102*2055.028390 
102*2055.028390 102*2053.282883 
102*2053.282883 102*2051.537377 
102*2051.537377 102*2049.791870 
102*2049.791870 102*2048.046364 
102*2048.046364 102*2046.300857 
102*2046.300857 102*2044.555351 
102*2044.555351 102*2042.809844 
102*2042.809844 102*2041.064338 
102*2041.064338 102*2039.318831 
102*2039.318831 102*2037.573325 
102*2037.573325 102*2035.827818 
102*2035.827818 102*2034.082312 
102*2034.082312 102*2032.336805 
102*2032.336805 102*2030.591299 
102*2030.591299 102*2028.845792 
102*2028.845792 102*2027.100286 
102*2027.100286 102*2025.354779 
102*2025.354779 102*2023.609273 
102*2023.609273 102*2021.863766 
102*2021.863766 102*2020.118260 
102*2020.118260 102*2018.372753 
102*2018.372753 102*2016.627247 
102*2016.627247 102*2014.881740 
102*2014.881740 102*2013.136234 
102*2013.136234 102*2011.390727 
102*2011.390727 102*2009.645221 
102*2009.645221 102*2007.899714 
102*2007.899714 102*2006.154208 
102*2006.154208 102*2004.408701 
102*2004.408701 102*2002.663195 
102*2002.663195 102*2000.917688 
102*2000.917688 102*1999.172182 
102*1999.172182 102*1997.426675 
102*1997.426675 102*1995.681169 
102*1995.681169 102*1993.935662 
102*1993.935662 102*1992.190156 
102*1992.190156 102*1990.444649 
102*1990.444649 102*1988.699143 
102*1988.699143 102*1986.953636 
102*1986.953636 102*1985.208130 
102*1985.208130 102*1983.462623 
102*1983.462623 102*1981.717117 
102*1981.717117 102*1979.971610 
102*1979.971610 102*1978.226104 
102*1978.226104 102*1976.480597 
102*1976.480597 102*1974.735091 
102*2063.755922 102*2062.010416 
102*2062.010416 102*2060.264909 
102*2060.264909 102*2058.519403 
102*2058.519403 102*2056.773896 
102*2056.773896 102*2055.028390 
102*2055.028390 102*2053.282883 
102*2053.282883 102*2051.537377 
102*2051.537377 102*2049.791870 
102*2049.791870 102*2048.046364 
102*2048.046364 102*2046.300857 
102*2046.300857 102*2044.555351 
102*2044.555351 102*2042.809844 
102*2042.809844 102*2041.064338 
102*2041.064338 102*2039.318831 
102*2039.318831 102*2037.573325 
102*2037.573325 102*2035.827818 
102*2035.827818 102*2034.082312 
102*2034.082312 102*2032.336805 
102*2032.336805 102*2030.591299 
102*2030.591299 102*2028.845792 
102*2028.845792 102*2027.100286 
102*2027.100286 102*2025.354779 
102*2025.354779 102*2023.609273 
102*2023.609273 102*2021.863766 
102*2021.863766 102*2020.118260 
102*2020.118260 102*2018.372753 
102*2018.372753 102*2016.627247 
102*2016.627247 102*2014.881740 
102*2014.881740 102*2013.136234 
102*2013.136234 102*2011.390727 
102*2011.390727 102*2009.645221 
102*2009.645221 102*2007.899714 
102*2007.899714 102*2006.154208 
102*2006.154208 102*2004.408701 
102*2004.408701 102*2002.663195 
102*2002.663195 102*2000.917688 
102*2000.917688 102*1999.172182 
102*1999.172182 102*1997.426675 
102*1997.426675 102*1995.681169 
102*1995.681169 102*1993.935662 
102*1993.935662 102*1992.190156 
102*1992.190156 102*1990.444649 
102*1990.444649 102*1988.699143 
102*1988.699143 102*1986.953636 
102*1986.953636 102*1985.208130 
102*1985.208130 102*1983.462623 
102*1983.462623 102*1981.717117 
102*1981.717117 102*1979.971610 
102*1979.971610 102*1978.226104 
102*1978.226104 102*1976.480597 
102*1976.480597 102*1974.735091 
102*2066.255922 102*2064.510416 
102*2064.510416 102*2062.764909 
102*2062.764909 102*2061.019403 
102*2061.019403 102*2059.273896 
102*2059.273896 102*2057.528390 
102*2057.528390 102*2055.782883 
102*2055.782883 102*2054.037377 
102*2054.037377 102*2052.291870 
102*2052.291870 102*2050.546364 
102*2050.546364 102*2048.800857 
102*2048.800857 102*2047.055351 
102*2047.055351 102*2045.309844 
102*2045.309844 102*2043.564338 
102*2043.564338 102*2041.818831 
102*2041.818831 102*2040.073325 
102*2040.073325 102*2038.327818 
102*2038.327818 102*2036.582312 
102*2036.582312 102*2034.836805 
102*2034.836805 102*2033.091299 
102*2033.091299 102*2031.345792 
102*2031.345792 102*2029.600286 
102*2029.600286 102*2027.854779 
102*2027.854779 102*2026.109273 
102*2026.109273 102*2024.363766 
102*2024.363766 102*2022.618260 
102*2022.618260 102*2020.872753 
102*2020.872753 102*2019.127247 
102*2019.127247 102*2017.381740 
102*2017.381740 102*2015.636234 
102*2015.636234 102*2013.890727 
102*2013.890727 102*2012.145221 
102*2012.145221 102*2010.399714 
102*2010.399714 102*2008.654208 
102*2008.654208 102*2006.908701 
102*2006.908701 102*2005.163195 
102*2005.163195 102*2003.417688 
102*2003.417688 102*2001.672182 
102*2001.672182 102*1999.926675 
102*1999.926675 102*1998.181169 
102*1998.181169 102*1996.435662 
102*1996.435662 102*1994.690156 
102*1994.690156 102*1992.944649 
102*1992.944649 102*1991.199143 
102*1991.199143 102*1989.453636 
102*1989.453636 102*1987.708130 
102*1987.708130 102*1985.962623 
102*1985.962623 102*1984.217117 
102*1984.217117 102*1982.471610 
102*1982.471610 102*1980.726104 
102*1980.726104 102*1978.980597 
102*1978.980597 102*1977.235091 
102*2066.255922 102*2064.510416 
102*2064.510416 102*2062.764909 
102*2062.764909 102*2061.019403 
102*2061.019403 102*2059.273896 
102*2059.273896 102*2057.528390 
102*2057.528390 102*2055.782883 
102*2055.782883 102*2054.037377 
102*2054.037377 102*2052.291870 
102*2052.291870 102*2050.546364 
102*2050.546364 102*2048.800857 
102*2048.800857 102*2047.055351 
102*2047.055351 102*2045.309844 
102*2045.309844 102*2043.564338 
102*2043.564338 102*2041.818831 
102*2041.818831 102*2040.073325 
102*2040.073325 102*2038.327818 
102*2038.327818 102*2036.582312 
102*2036.582312 102*2034.836805 
102*2034.836805 102*2033.091299 
102*2033.091299 102*2031.345792 
102*2031.345792 102*2029.600286 
102*2029.600286 102*2027.854779 
102*2027.854779 102*2026.109273 
102*2026.109273 102*2024.363766 
102*2024.363766 102*2022.618260 
102*2022.618260 102*2020.872753 
102*2020.872753 102*2019.127247 
102*2019.127247 102*2017.381740 
102*2017.381740 102*2015.636234 
102*2015.636234 102*2013.890727 
102*2013.890727 102*2012.145221 
102*2012.145221 102*2010.399714 
102*2010.399714 102*2008.654208 
102*2008.654208 102*2006.908701 
102*2006.908701 102*2005.163195 
102*2005.163195 102*2003.417688 
102*2003.417688 102*2001.672182 
102*2001.672182 102*1999.926675 
102*1999.926675 102*1998.181169 
102*1998.181169 102*1996.435662 
102*1996.435662 102*1994.690156 
102*1994.690156 102*1992.944649 
102*1992.944649 102*1991.199143 
102*1991.199143 102*1989.453636 
102*1989.453636 102*1987.708130 
102*1987.708130 102*1985.962623 
102*1985.962623 102*1984.217117 
102*1984.217117 102*1982.471610 
102*1982.471610 102*1980.726104 
102*1980.726104 102*1978.980597 
102*1978.980597 102*1977.235091 
102*2068.755922 102*2067.010416 
102*2067.010416 102*2065.264909 
102*2065.264909 102*2063.519403 
102*2063.519403 102*2061.773896 
102*2061.773896 102*2060.028390 
102*2060.028390 102*2058.282883 
102*2058.282883 102*2056.537377 
102*2056.537377 102*2054.791870 
102*2054.791870 102*2053.046364 
102*2053.046364 102*2051.300857 
102*2051.300857 102*2049.555351 
102*2049.555351 102*2047.809844 
102*2047.809844 102*2046.064338 
102*2046.064338 102*2044.318831 
102*2044.318831 102*2042.573325 
102*2042.573325 102*2040.827818 
102*2040.827818 102*2039.082312 
102*2039.082312 102*2037.336805 
102*2037.336805 102*2035.591299 
102*2035.591299 102*2033.845792 
102*2033.845792 102*2032.100286 
102*2032.100286 102*2030.354779 
102*2030.354779 102*2028.609273 
102*2028.609273 102*2026.863766 
102*2026.863766 102*2025.118260 
102*2025.118260 102*2023.372753 
102*2023.372753 102*2021.627247 
102*2021.627247 102*2019.881740 
102*2019.881740 102*2018.136234 
102*2018.136234 102*2016.390727 
102*2016.390727 102*2014.645221 
102*2014.645221 102*2012.899714 
102*2012.899714 102*2011.154208 
102*2011.154208 102*2009.408701 
102*2009.408701 102*2007.663195 
102*2007.663195 102*2005.917688 
102*2005.917688 102*2004.172182 
102*2004.172182 102*2002.426675 
102*2002.426675 102*2000.681169 
102*2000.681169 102*1998.935662 
102*1998.935662 102*1997.190156 