ZCORN
102*2004.162614 102*2004.005534 
102*2004.005534 102*2003.848454 
102*2003.848454 102*2003.691374 
102*2003.691374 102*2003.534295 
102*2003.534295 102*2003.377215 
102*2003.377215 102*2003.220135 
102*2003.220135 102*2003.063055 
102*2003.063055 102*2002.905976 
102*2002.905976 102*2002.748896 
102*2002.748896 102*2002.591816 
102*2002.591816 102*2002.434736 
102*2002.434736 102*2002.277657 
102*2002.277657 102*2002.120577 
102*2002.120577 102*2001.963497 
102*2001.963497 102*2001.806417 
102*2001.806417 102*2001.649337 
102*2001.649337 102*2001.492258 
102*2001.492258 102*2001.335178 
102*2001.335178 102*2001.178098 
102*2001.178098 102*2001.021018 
102*2001.021018 102*2000.863939 
102*2000.863939 102*2000.706859 
102*2000.706859 102*2000.549779 
102*2000.549779 102*2000.392699 
102*2000.392699 102*2000.235620 
102*2000.235620 102*2000.078540 
102*2000.078540 102*1999.921460 
102*1999.921460 102*1999.764380 
102*1999.764380 102*1999.607301 
102*1999.607301 102*1999.450221 
102*1999.450221 102*1999.293141 
102*1999.293141 102*1999.136061 
102*1999.136061 102*1998.978982 
102*1998.978982 102*1998.821902 
102*1998.821902 102*1998.664822 
102*1998.664822 102*1998.507742 
102*1998.507742 102*1998.350663 
102*1998.350663 102*1998.193583 
102*1998.193583 102*1998.036503 
102*1998.036503 102*1997.879423 
102*1997.879423 102*1997.722343 
102*1997.722343 102*1997.565264 
102*1997.565264 102*1997.408184 
102*1997.408184 102*1997.251104 
102*1997.251104 102*1997.094024 
102*1997.094024 102*1996.936945 
102*1996.936945 102*1996.779865 
102*1996.779865 102*1996.622785 
102*1996.622785 102*1996.465705 
102*1996.465705 102*1996.308626 
102*1996.308626 102*1996.151546 
102*2006.662614 102*2006.505534 
102*2006.505534 102*2006.348454 
102*2006.348454 102*2006.191374 
102*2006.191374 102*2006.034295 
102*2006.034295 102*2005.877215 
102*2005.877215 102*2005.720135 
102*2005.720135 102*2005.563055 
102*2005.563055 102*2005.405976 
102*2005.405976 102*2005.248896 
102*2005.248896 102*2005.091816 
102*2005.091816 102*2004.934736 
102*2004.934736 102*2004.777657 
102*2004.777657 102*2004.620577 
102*2004.620577 102*2004.463497 
102*2004.463497 102*2004.306417 
102*2004.306417 102*2004.149337 
102*2004.149337 102*2003.992258 
102*2003.992258 102*2003.835178 
102*2003.835178 102*2003.678098 
102*2003.678098 102*2003.521018 
102*2003.521018 102*2003.363939 
102*2003.363939 102*2003.206859 
102*2003.206859 102*2003.049779 
102*2003.049779 102*2002.892699 
102*2002.892699 102*2002.735620 
102*2002.735620 102*2002.578540 
102*2002.578540 102*2002.421460 
102*2002.421460 102*2002.264380 
102*2002.264380 102*2002.107301 
102*2002.107301 102*2001.950221 
102*2001.950221 102*2001.793141 
102*2001.793141 102*2001.636061 
102*2001.636061 102*2001.478982 
102*2001.478982 102*2001.321902 
102*2001.321902 102*2001.164822 
102*2001.164822 102*2001.007742 
102*2001.007742 102*2000.850663 
102*2000.850663 102*2000.693583 
102*2000.693583 102*2000.536503 
102*2000.536503 102*2000.379423 
102*2000.379423 102*2000.222343 
102*2000.222343 102*2000.065264 
102*2000.065264 102*1999.908184 
102*1999.908184 102*1999.751104 
102*1999.751104 102*1999.594024 
102*1999.594024 102*1999.436945 
102*1999.436945 102*1999.279865 
102*1999.279865 102*1999.122785 
102*1999.122785 102*1998.965705 
102*1998.965705 102*1998.808626 
102*1998.808626 102*1998.651546 
102*2006.662614 102*2006.505534 
102*2006.505534 102*2006.348454 
102*2006.348454 102*2006.191374 
102*2006.191374 102*2006.034295 
102*2006.034295 102*2005.877215 
102*2005.877215 102*2005.720135 
102*2005.720135 102*2005.563055 
102*2005.563055 102*2005.405976 
102*2005.405976 102*2005.248896 
102*2005.248896 102*2005.091816 
102*2005.091816 102*2004.934736 
102*2004.934736 102*2004.777657 
102*2004.777657 102*2004.620577 
102*2004.620577 102*2004.463497 
102*2004.463497 102*2004.306417 
102*2004.306417 102*2004.149337 
102*2004.149337 102*2003.992258 
102*2003.992258 102*2003.835178 
102*2003.835178 102*2003.678098 
102*2003.678098 102*2003.521018 
102*2003.521018 102*2003.363939 
102*2003.363939 102*2003.206859 
102*2003.206859 102*2003.049779 
102*2003.049779 102*2002.892699 
102*2002.892699 102*2002.735620 
102*2002.735620 102*2002.578540 
102*2002.578540 102*2002.421460 
102*2002.421460 102*2002.264380 
102*2002.264380 102*2002.107301 
102*2002.107301 102*2001.950221 
102*2001.950221 102*2001.793141 
102*2001.793141 102*2001.636061 
102*2001.636061 102*2001.478982 
102*2001.478982 102*2001.321902 
102*2001.321902 102*2001.164822 
102*2001.164822 102*2001.007742 
102*2001.007742 102*2000.850663 
102*2000.850663 102*2000.693583 
102*2000.693583 102*2000.536503 
102*2000.536503 102*2000.379423 
102*2000.379423 102*2000.222343 
102*2000.222343 102*2000.065264 
102*2000.065264 102*1999.908184 
102*1999.908184 102*1999.751104 
102*1999.751104 102*1999.594024 
102*1999.594024 102*1999.436945 
102*1999.436945 102*1999.279865 
102*1999.279865 102*1999.122785 
102*1999.122785 102*1998.965705 
102*1998.965705 102*1998.808626 
102*1998.808626 102*1998.651546 
102*2009.162614 102*2009.005534 
102*2009.005534 102*2008.848454 
102*2008.848454 102*2008.691374 
102*2008.691374 102*2008.534295 
102*2008.534295 102*2008.377215 
102*2008.377215 102*2008.220135 
102*2008.220135 102*2008.063055 
102*2008.063055 102*2007.905976 
102*2007.905976 102*2007.748896 
102*2007.748896 102*2007.591816 
102*2007.591816 102*2007.434736 
102*2007.434736 102*2007.277657 
102*2007.277657 102*2007.120577 
102*2007.120577 102*2006.963497 
102*2006.963497 102*2006.806417 
102*2006.806417 102*2006.649337 
102*2006.649337 102*2006.492258 
102*2006.492258 102*2006.335178 
102*2006.335178 102*2006.178098 
102*2006.178098 102*2006.021018 
102*2006.021018 102*2005.863939 
102*2005.863939 102*2005.706859 
102*2005.706859 102*2005.549779 
102*2005.549779 102*2005.392699 
102*2005.392699 102*2005.235620 
102*2005.235620 102*2005.078540 
102*2005.078540 102*2004.921460 
102*2004.921460 102*2004.764380 
102*2004.764380 102*2004.607301 
102*2004.607301 102*2004.450221 
102*2004.450221 102*2004.293141 
102*2004.293141 102*2004.136061 
102*2004.136061 102*2003.978982 
102*2003.978982 102*2003.821902 
102*2003.821902 102*2003.664822 
102*2003.664822 102*2003.507742 
102*2003.507742 102*2003.350663 
102*2003.350663 102*2003.193583 
102*2003.193583 102*2003.036503 
102*2003.036503 102*2002.879423 
102*2002.879423 102*2002.722343 
102*2002.722343 102*2002.565264 
102*2002.565264 102*2002.408184 
102*2002.408184 102*2002.251104 
102*2002.251104 102*2002.094024 
102*2002.094024 102*2001.936945 
102*2001.936945 102*2001.779865 
102*2001.779865 102*2001.622785 
102*2001.622785 102*2001.465705 
102*2001.465705 102*2001.308626 
102*2001.308626 102*2001.151546 
102*2009.162614 102*2009.005534 
102*2009.005534 102*2008.848454 
102*2008.848454 102*2008.691374 
102*2008.691374 102*2008.534295 
102*2008.534295 102*2008.377215 
102*2008.377215 102*2008.220135 
102*2008.220135 102*2008.063055 
102*2008.063055 102*2007.905976 
102*2007.905976 102*2007.748896 
102*2007.748896 102*2007.591816 
102*2007.591816 102*2007.434736 
102*2007.434736 102*2007.277657 
102*2007.277657 102*2007.120577 
102*2007.120577 102*2006.963497 
102*2006.963497 102*2006.806417 
102*2006.806417 102*2006.649337 
102*2006.649337 102*2006.492258 
102*2006.492258 102*2006.335178 
102*2006.335178 102*2006.178098 
102*2006.178098 102*2006.021018 
102*2006.021018 102*2005.863939 
102*2005.863939 102*2005.706859 
102*2005.706859 102*2005.549779 
102*2005.549779 102*2005.392699 
102*2005.392699 102*2005.235620 
102*2005.235620 102*2005.078540 
102*2005.078540 102*2004.921460 
102*2004.921460 102*2004.764380 
102*2004.764380 102*2004.607301 
102*2004.607301 102*2004.450221 
102*2004.450221 102*2004.293141 
102*2004.293141 102*2004.136061 
102*2004.136061 102*2003.978982 
102*2003.978982 102*2003.821902 
102*2003.821902 102*2003.664822 
102*2003.664822 102*2003.507742 
102*2003.507742 102*2003.350663 
102*2003.350663 102*2003.193583 
102*2003.193583 102*2003.036503 
102*2003.036503 102*2002.879423 
102*2002.879423 102*2002.722343 
102*2002.722343 102*2002.565264 
102*2002.565264 102*2002.408184 
102*2002.408184 102*2002.251104 
102*2002.251104 102*2002.094024 
102*2002.094024 102*2001.936945 
102*2001.936945 102*2001.779865 
102*2001.779865 102*2001.622785 
102*2001.622785 102*2001.465705 
102*2001.465705 102*2001.308626 
102*2001.308626 102*2001.151546 
102*2011.662614 102*2011.505534 
102*2011.505534 102*2011.348454 
102*2011.348454 102*2011.191374 
102*2011.191374 102*2011.034295 
102*2011.034295 102*2010.877215 
102*2010.877215 102*2010.720135 
102*2010.720135 102*2010.563055 
102*2010.563055 102*2010.405976 
102*2010.405976 102*2010.248896 
102*2010.248896 102*2010.091816 
102*2010.091816 102*2009.934736 
102*2009.934736 102*2009.777657 
102*2009.777657 102*2009.620577 
102*2009.620577 102*2009.463497 
102*2009.463497 102*2009.306417 
102*2009.306417 102*2009.149337 
102*2009.149337 102*2008.992258 
102*2008.992258 102*2008.835178 
102*2008.835178 102*2008.678098 
102*2008.678098 102*2008.521018 
102*2008.521018 102*2008.363939 
102*2008.363939 102*2008.206859 
102*2008.206859 102*2008.049779 
102*2008.049779 102*2007.892699 
102*2007.892699 102*2007.735620 
102*2007.735620 102*2007.578540 
102*2007.578540 102*2007.421460 
102*2007.421460 102*2007.264380 
102*2007.264380 102*2007.107301 
102*2007.107301 102*2006.950221 
102*2006.950221 102*2006.793141 
102*2006.793141 102*2006.636061 
102*2006.636061 102*2006.478982 
102*2006.478982 102*2006.321902 
102*2006.321902 102*2006.164822 
102*2006.164822 102*2006.007742 
102*2006.007742 102*2005.850663 
102*2005.850663 102*2005.693583 
102*2005.693583 102*2005.536503 
102*2005.536503 102*2005.379423 
102*2005.379423 102*2005.222343 
102*2005.222343 102*2005.065264 
102*2005.065264 102*2004.908184 
102*2004.908184 102*2004.751104 
102*2004.751104 102*2004.594024 
102*2004.594024 102*2004.436945 
102*2004.436945 102*2004.279865 
102*2004.279865 102*2004.122785 
102*2004.122785 102*2003.965705 
102*2003.965705 102*2003.808626 
102*2003.808626 102*2003.651546 
102*2011.662614 102*2011.505534 
102*2011.505534 102*2011.348454 
102*2011.348454 102*2011.191374 
102*2011.191374 102*2011.034295 
102*2011.034295 102*2010.877215 
102*2010.877215 102*2010.720135 
102*2010.720135 102*2010.563055 
102*2010.563055 102*2010.405976 
102*2010.405976 102*2010.248896 
102*2010.248896 102*2010.091816 
102*2010.091816 102*2009.934736 
102*2009.934736 102*2009.777657 
102*2009.777657 102*2009.620577 
102*2009.620577 102*2009.463497 
102*2009.463497 102*2009.306417 
102*2009.306417 102*2009.149337 
102*2009.149337 102*2008.992258 
102*2008.992258 102*2008.835178 
102*2008.835178 102*2008.678098 
102*2008.678098 102*2008.521018 
102*2008.521018 102*2008.363939 
102*2008.363939 102*2008.206859 
102*2008.206859 102*2008.049779 
102*2008.049779 102*2007.892699 
102*2007.892699 102*2007.735620 
102*2007.735620 102*2007.578540 
102*2007.578540 102*2007.421460 
102*2007.421460 102*2007.264380 
102*2007.264380 102*2007.107301 
102*2007.107301 102*2006.950221 
102*2006.950221 102*2006.793141 
102*2006.793141 102*2006.636061 
102*2006.636061 102*2006.478982 
102*2006.478982 102*2006.321902 
102*2006.321902 102*2006.164822 
102*2006.164822 102*2006.007742 
102*2006.007742 102*2005.850663 
102*2005.850663 102*2005.693583 
102*2005.693583 102*2005.536503 
102*2005.536503 102*2005.379423 
102*2005.379423 102*2005.222343 
102*2005.222343 102*2005.065264 
102*2005.065264 102*2004.908184 
102*2004.908184 102*2004.751104 
102*2004.751104 102*2004.594024 
102*2004.594024 102*2004.436945 
102*2004.436945 102*2004.279865 
102*2004.279865 102*2004.122785 
102*2004.122785 102*2003.965705 
102*2003.965705 102*2003.808626 
102*2003.808626 102*2003.651546 
102*2014.162614 102*2014.005534 
102*2014.005534 102*2013.848454 
102*2013.848454 102*2013.691374 
102*2013.691374 102*2013.534295 
102*2013.534295 102*2013.377215 
102*2013.377215 102*2013.220135 
102*2013.220135 102*2013.063055 
102*2013.063055 102*2012.905976 
102*2012.905976 102*2012.748896 
102*2012.748896 102*2012.591816 
102*2012.591816 102*2012.434736 
102*2012.434736 102*2012.277657 
102*2012.277657 102*2012.120577 
102*2012.120577 102*2011.963497 
102*2011.963497 102*2011.806417 
102*2011.806417 102*2011.649337 
102*2011.649337 102*2011.492258 
102*2011.492258 102*2011.335178 
102*2011.335178 102*2011.178098 
102*2011.178098 102*2011.021018 
102*2011.021018 102*2010.863939 
102*2010.863939 102*2010.706859 
102*2010.706859 102*2010.549779 
102*2010.549779 102*2010.392699 
102*2010.392699 102*2010.235620 
102*2010.235620 102*2010.078540 
102*2010.078540 102*2009.921460 
102*2009.921460 102*2009.764380 
102*2009.764380 102*2009.607301 
102*2009.607301 102*2009.450221 
102*2009.450221 102*2009.293141 
102*2009.293141 102*2009.136061 
102*2009.136061 102*2008.978982 
102*2008.978982 102*2008.821902 
102*2008.821902 102*2008.664822 
102*2008.664822 102*2008.507742 
102*2008.507742 102*2008.350663 
102*2008.350663 102*2008.193583 
102*2008.193583 102*2008.036503 
102*2008.036503 102*2007.879423 
102*2007.879423 102*2007.722343 
102*2007.722343 102*2007.565264 
102*2007.565264 102*2007.408184 
102*2007.408184 102*2007.251104 
102*2007.251104 102*2007.094024 
102*2007.094024 102*2006.936945 
102*2006.936945 102*2006.779865 
102*2006.779865 102*2006.622785 
102*2006.622785 102*2006.465705 
102*2006.465705 102*2006.308626 
102*2006.308626 102*2006.151546 
102*2014.162614 102*2014.005534 
102*2014.005534 102*2013.848454 
102*2013.848454 102*2013.691374 
102*2013.691374 102*2013.534295 
102*2013.534295 102*2013.377215 
102*2013.377215 102*2013.220135 
102*2013.220135 102*2013.063055 
102*2013.063055 102*2012.905976 
102*2012.905976 102*2012.748896 
102*2012.748896 102*2012.591816 
102*2012.591816 102*2012.434736 
102*2012.434736 102*2012.277657 
102*2012.277657 102*2012.120577 
102*2012.120577 102*2011.963497 
102*2011.963497 102*2011.806417 
102*2011.806417 102*2011.649337 
102*2011.649337 102*2011.492258 
102*2011.492258 102*2011.335178 
102*2011.335178 102*2011.178098 
102*2011.178098 102*2011.021018 
102*2011.021018 102*2010.863939 
102*2010.863939 102*2010.706859 
102*2010.706859 102*2010.549779 
102*2010.549779 102*2010.392699 
102*2010.392699 102*2010.235620 
102*2010.235620 102*2010.078540 
102*2010.078540 102*2009.921460 
102*2009.921460 102*2009.764380 
102*2009.764380 102*2009.607301 
102*2009.607301 102*2009.450221 
102*2009.450221 102*2009.293141 
102*2009.293141 102*2009.136061 
102*2009.136061 102*2008.978982 
102*2008.978982 102*2008.821902 
102*2008.821902 102*2008.664822 
102*2008.664822 102*2008.507742 
102*2008.507742 102*2008.350663 
102*2008.350663 102*2008.193583 
102*2008.193583 102*2008.036503 
102*2008.036503 102*2007.879423 
102*2007.879423 102*2007.722343 
102*2007.722343 102*2007.565264 
102*2007.565264 102*2007.408184 
102*2007.408184 102*2007.251104 
102*2007.251104 102*2007.094024 
102*2007.094024 102*2006.936945 
102*2006.936945 102*2006.779865 
102*2006.779865 102*2006.622785 
102*2006.622785 102*2006.465705 
102*2006.465705 102*2006.308626 
102*2006.308626 102*2006.151546 
102*2016.662614 102*2016.505534 
102*2016.505534 102*2016.348454 
102*2016.348454 102*2016.191374 
102*2016.191374 102*2016.034295 
102*2016.034295 102*2015.877215 
102*2015.877215 102*2015.720135 
102*2015.720135 102*2015.563055 
102*2015.563055 102*2015.405976 
102*2015.405976 102*2015.248896 
102*2015.248896 102*2015.091816 
102*2015.091816 102*2014.934736 
102*2014.934736 102*2014.777657 
102*2014.777657 102*2014.620577 
102*2014.620577 102*2014.463497 
102*2014.463497 102*2014.306417 
102*2014.306417 102*2014.149337 
102*2014.149337 102*2013.992258 
102*2013.992258 102*2013.835178 
102*2013.835178 102*2013.678098 
102*2013.678098 102*2013.521018 
102*2013.521018 102*2013.363939 
102*2013.363939 102*2013.206859 
102*2013.206859 102*2013.049779 
102*2013.049779 102*2012.892699 
102*2012.892699 102*2012.735620 
102*2012.735620 102*2012.578540 
102*2012.578540 102*2012.421460 
102*2012.421460 102*2012.264380 
102*2012.264380 102*2012.107301 
102*2012.107301 102*2011.950221 
102*2011.950221 102*2011.793141 
102*2011.793141 102*2011.636061 
102*2011.636061 102*2011.478982 
102*2011.478982 102*2011.321902 
102*2011.321902 102*2011.164822 
102*2011.164822 102*2011.007742 
102*2011.007742 102*2010.850663 
102*2010.850663 102*2010.693583 
102*2010.693583 102*2010.536503 
102*2010.536503 102*2010.379423 
102*2010.379423 102*2010.222343 
102*2010.222343 102*2010.065264 
102*2010.065264 102*2009.908184 
102*2009.908184 102*2009.751104 
102*2009.751104 102*2009.594024 
102*2009.594024 102*2009.436945 
102*2009.436945 102*2009.279865 
102*2009.279865 102*2009.122785 
102*2009.122785 102*2008.965705 
102*2008.965705 102*2008.808626 
102*2008.808626 102*2008.651546 
102*2016.662614 102*2016.505534 
102*2016.505534 102*2016.348454 
102*2016.348454 102*2016.191374 
102*2016.191374 102*2016.034295 
102*2016.034295 102*2015.877215 
102*2015.877215 102*2015.720135 
102*2015.720135 102*2015.563055 
102*2015.563055 102*2015.405976 
102*2015.405976 102*2015.248896 
102*2015.248896 102*2015.091816 
102*2015.091816 102*2014.934736 
102*2014.934736 102*2014.777657 
102*2014.777657 102*2014.620577 
102*2014.620577 102*2014.463497 
102*2014.463497 102*2014.306417 
102*2014.306417 102*2014.149337 
102*2014.149337 102*2013.992258 
102*2013.992258 102*2013.835178 
102*2013.835178 102*2013.678098 
102*2013.678098 102*2013.521018 
102*2013.521018 102*2013.363939 
102*2013.363939 102*2013.206859 
102*2013.206859 102*2013.049779 
102*2013.049779 102*2012.892699 
102*2012.892699 102*2012.735620 
102*2012.735620 102*2012.578540 
102*2012.578540 102*2012.421460 
102*2012.421460 102*2012.264380 
102*2012.264380 102*2012.107301 
102*2012.107301 102*2011.950221 
102*2011.950221 102*2011.793141 
102*2011.793141 102*2011.636061 
102*2011.636061 102*2011.478982 
102*2011.478982 102*2011.321902 
102*2011.321902 102*2011.164822 
102*2011.164822 102*2011.007742 
102*2011.007742 102*2010.850663 
102*2010.850663 102*2010.693583 
102*2010.693583 102*2010.536503 
102*2010.536503 102*2010.379423 
102*2010.379423 102*2010.222343 
102*2010.222343 102*2010.065264 
102*2010.065264 102*2009.908184 
102*2009.908184 102*2009.751104 
102*2009.751104 102*2009.594024 
102*2009.594024 102*2009.436945 
102*2009.436945 102*2009.279865 
102*2009.279865 102*2009.122785 
102*2009.122785 102*2008.965705 
102*2008.965705 102*2008.808626 
102*2008.808626 102*2008.651546 
102*2019.162614 102*2019.005534 
102*2019.005534 102*2018.848454 
102*2018.848454 102*2018.691374 
102*2018.691374 102*2018.534295 
102*2018.534295 102*2018.377215 
102*2018.377215 102*2018.220135 
102*2018.220135 102*2018.063055 
102*2018.063055 102*2017.905976 
102*2017.905976 102*2017.748896 
102*2017.748896 102*2017.591816 
102*2017.591816 102*2017.434736 
102*2017.434736 102*2017.277657 
102*2017.277657 102*2017.120577 
102*2017.120577 102*2016.963497 
102*2016.963497 102*2016.806417 
102*2016.806417 102*2016.649337 
102*2016.649337 102*2016.492258 
102*2016.492258 102*2016.335178 
102*2016.335178 102*2016.178098 
102*2016.178098 102*2016.021018 
102*2016.021018 102*2015.863939 
102*2015.863939 102*2015.706859 
102*2015.706859 102*2015.549779 
102*2015.549779 102*2015.392699 
102*2015.392699 102*2015.235620 
102*2015.235620 102*2015.078540 
102*2015.078540 102*2014.921460 
102*2014.921460 102*2014.764380 
102*2014.764380 102*2014.607301 
102*2014.607301 102*2014.450221 
102*2014.450221 102*2014.293141 
102*2014.293141 102*2014.136061 
102*2014.136061 102*2013.978982 
102*2013.978982 102*2013.821902 
102*2013.821902 102*2013.664822 
102*2013.664822 102*2013.507742 
102*2013.507742 102*2013.350663 
102*2013.350663 102*2013.193583 
102*2013.193583 102*2013.036503 
102*2013.036503 102*2012.879423 
102*2012.879423 102*2012.722343 
102*2012.722343 102*2012.565264 
102*2012.565264 102*2012.408184 
102*2012.408184 102*2012.251104 
102*2012.251104 102*2012.094024 
102*2012.094024 102*2011.936945 
102*2011.936945 102*2011.779865 
102*2011.779865 102*2011.622785 
102*2011.622785 102*2011.465705 
102*2011.465705 102*2011.308626 
102*2011.308626 102*2011.151546 
102*2019.162614 102*2019.005534 
102*2019.005534 102*2018.848454 
102*2018.848454 102*2018.691374 
102*2018.691374 102*2018.534295 
102*2018.534295 102*2018.377215 
102*2018.377215 102*2018.220135 
102*2018.220135 102*2018.063055 
102*2018.063055 102*2017.905976 
102*2017.905976 102*2017.748896 
102*2017.748896 102*2017.591816 
102*2017.591816 102*2017.434736 
102*2017.434736 102*2017.277657 
102*2017.277657 102*2017.120577 
102*2017.120577 102*2016.963497 
102*2016.963497 102*2016.806417 
102*2016.806417 102*2016.649337 
102*2016.649337 102*2016.492258 
102*2016.492258 102*2016.335178 
102*2016.335178 102*2016.178098 
102*2016.178098 102*2016.021018 
102*2016.021018 102*2015.863939 
102*2015.863939 102*2015.706859 
102*2015.706859 102*2015.549779 
102*2015.549779 102*2015.392699 
102*2015.392699 102*2015.235620 
102*2015.235620 102*2015.078540 
102*2015.078540 102*2014.921460 
102*2014.921460 102*2014.764380 
102*2014.764380 102*2014.607301 
102*2014.607301 102*2014.450221 
102*2014.450221 102*2014.293141 
102*2014.293141 102*2014.136061 
102*2014.136061 102*2013.978982 
102*2013.978982 102*2013.821902 
102*2013.821902 102*2013.664822 
102*2013.664822 102*2013.507742 
102*2013.507742 102*2013.350663 
102*2013.350663 102*2013.193583 
102*2013.193583 102*2013.036503 
102*2013.036503 102*2012.879423 
102*2012.879423 102*2012.722343 
102*2012.722343 102*2012.565264 
102*2012.565264 102*2012.408184 
102*2012.408184 102*2012.251104 
102*2012.251104 102*2012.094024 
102*2012.094024 102*2011.936945 
102*2011.936945 102*2011.779865 
102*2011.779865 102*2011.622785 
102*2011.622785 102*2011.465705 
102*2011.465705 102*2011.308626 
102*2011.308626 102*2011.151546 
102*2021.662614 102*2021.505534 
102*2021.505534 102*2021.348454 
102*2021.348454 102*2021.191374 
102*2021.191374 102*2021.034295 
102*2021.034295 102*2020.877215 
102*2020.877215 102*2020.720135 
102*2020.720135 102*2020.563055 
102*2020.563055 102*2020.405976 
102*2020.405976 102*2020.248896 
102*2020.248896 102*2020.091816 
102*2020.091816 102*2019.934736 
102*2019.934736 102*2019.777657 
102*2019.777657 102*2019.620577 
102*2019.620577 102*2019.463497 
102*2019.463497 102*2019.306417 
102*2019.306417 102*2019.149337 
102*2019.149337 102*2018.992258 
102*2018.992258 102*2018.835178 
102*2018.835178 102*2018.678098 
102*2018.678098 102*2018.521018 
102*2018.521018 102*2018.363939 
102*2018.363939 102*2018.206859 
102*2018.206859 102*2018.049779 
102*2018.049779 102*2017.892699 
102*2017.892699 102*2017.735620 
102*2017.735620 102*2017.578540 
102*2017.578540 102*2017.421460 
102*2017.421460 102*2017.264380 
102*2017.264380 102*2017.107301 
102*2017.107301 102*2016.950221 
102*2016.950221 102*2016.793141 
102*2016.793141 102*2016.636061 
102*2016.636061 102*2016.478982 
102*2016.478982 102*2016.321902 
102*2016.321902 102*2016.164822 
102*2016.164822 102*2016.007742 
102*2016.007742 102*2015.850663 
102*2015.850663 102*2015.693583 
102*2015.693583 102*2015.536503 
102*2015.536503 102*2015.379423 
102*2015.379423 102*2015.222343 
102*2015.222343 102*2015.065264 
102*2015.065264 102*2014.908184 
102*2014.908184 102*2014.751104 
102*2014.751104 102*2014.594024 
102*2014.594024 102*2014.436945 
102*2014.436945 102*2014.279865 
102*2014.279865 102*2014.122785 
102*2014.122785 102*2013.965705 
102*2013.965705 102*2013.808626 
102*2013.808626 102*2013.651546 
102*2021.662614 102*2021.505534 
102*2021.505534 102*2021.348454 
102*2021.348454 102*2021.191374 
102*2021.191374 102*2021.034295 
102*2021.034295 102*2020.877215 
102*2020.877215 102*2020.720135 
102*2020.720135 102*2020.563055 
102*2020.563055 102*2020.405976 
102*2020.405976 102*2020.248896 
102*2020.248896 102*2020.091816 
102*2020.091816 102*2019.934736 
102*2019.934736 102*2019.777657 
102*2019.777657 102*2019.620577 
102*2019.620577 102*2019.463497 
102*2019.463497 102*2019.306417 
102*2019.306417 102*2019.149337 
102*2019.149337 102*2018.992258 
102*2018.992258 102*2018.835178 
102*2018.835178 102*2018.678098 
102*2018.678098 102*2018.521018 
102*2018.521018 102*2018.363939 
102*2018.363939 102*2018.206859 
102*2018.206859 102*2018.049779 
102*2018.049779 102*2017.892699 
102*2017.892699 102*2017.735620 
102*2017.735620 102*2017.578540 
102*2017.578540 102*2017.421460 
102*2017.421460 102*2017.264380 
102*2017.264380 102*2017.107301 
102*2017.107301 102*2016.950221 
102*2016.950221 102*2016.793141 
102*2016.793141 102*2016.636061 
102*2016.636061 102*2016.478982 
102*2016.478982 102*2016.321902 
102*2016.321902 102*2016.164822 
102*2016.164822 102*2016.007742 
102*2016.007742 102*2015.850663 
102*2015.850663 102*2015.693583 
102*2015.693583 102*2015.536503 
102*2015.536503 102*2015.379423 
102*2015.379423 102*2015.222343 
102*2015.222343 102*2015.065264 
102*2015.065264 102*2014.908184 
102*2014.908184 102*2014.751104 
102*2014.751104 102*2014.594024 
102*2014.594024 102*2014.436945 
102*2014.436945 102*2014.279865 
102*2014.279865 102*2014.122785 
102*2014.122785 102*2013.965705 
102*2013.965705 102*2013.808626 
102*2013.808626 102*2013.651546 
102*2024.162614 102*2024.005534 
102*2024.005534 102*2023.848454 
102*2023.848454 102*2023.691374 
102*2023.691374 102*2023.534295 
102*2023.534295 102*2023.377215 
102*2023.377215 102*2023.220135 
102*2023.220135 102*2023.063055 
102*2023.063055 102*2022.905976 
102*2022.905976 102*2022.748896 
102*2022.748896 102*2022.591816 
102*2022.591816 102*2022.434736 
102*2022.434736 102*2022.277657 
102*2022.277657 102*2022.120577 
102*2022.120577 102*2021.963497 
102*2021.963497 102*2021.806417 
102*2021.806417 102*2021.649337 
102*2021.649337 102*2021.492258 
102*2021.492258 102*2021.335178 
102*2021.335178 102*2021.178098 
102*2021.178098 102*2021.021018 
102*2021.021018 102*2020.863939 
102*2020.863939 102*2020.706859 
102*2020.706859 102*2020.549779 
102*2020.549779 102*2020.392699 
102*2020.392699 102*2020.235620 
102*2020.235620 102*2020.078540 
102*2020.078540 102*2019.921460 
102*2019.921460 102*2019.764380 
102*2019.764380 102*2019.607301 
102*2019.607301 102*2019.450221 
102*2019.450221 102*2019.293141 
102*2019.293141 102*2019.136061 
102*2019.136061 102*2018.978982 
102*2018.978982 102*2018.821902 
102*2018.821902 102*2018.664822 
102*2018.664822 102*2018.507742 
102*2018.507742 102*2018.350663 
102*2018.350663 102*2018.193583 
102*2018.193583 102*2018.036503 
102*2018.036503 102*2017.879423 
102*2017.879423 102*2017.722343 
102*2017.722343 102*2017.565264 
102*2017.565264 102*2017.408184 
102*2017.408184 102*2017.251104 
102*2017.251104 102*2017.094024 
102*2017.094024 102*2016.936945 
102*2016.936945 102*2016.779865 
102*2016.779865 102*2016.622785 
102*2016.622785 102*2016.465705 
102*2016.465705 102*2016.308626 
102*2016.308626 102*2016.151546 
102*2024.162614 102*2024.005534 
102*2024.005534 102*2023.848454 
102*2023.848454 102*2023.691374 
102*2023.691374 102*2023.534295 
102*2023.534295 102*2023.377215 
102*2023.377215 102*2023.220135 
102*2023.220135 102*2023.063055 
102*2023.063055 102*2022.905976 
102*2022.905976 102*2022.748896 
102*2022.748896 102*2022.591816 
102*2022.591816 102*2022.434736 
102*2022.434736 102*2022.277657 
102*2022.277657 102*2022.120577 
102*2022.120577 102*2021.963497 
102*2021.963497 102*2021.806417 
102*2021.806417 102*2021.649337 
102*2021.649337 102*2021.492258 
102*2021.492258 102*2021.335178 
102*2021.335178 102*2021.178098 
102*2021.178098 102*2021.021018 
102*2021.021018 102*2020.863939 
102*2020.863939 102*2020.706859 
102*2020.706859 102*2020.549779 
102*2020.549779 102*2020.392699 
102*2020.392699 102*2020.235620 
102*2020.235620 102*2020.078540 
102*2020.078540 102*2019.921460 
102*2019.921460 102*2019.764380 
102*2019.764380 102*2019.607301 
102*2019.607301 102*2019.450221 
102*2019.450221 102*2019.293141 
102*2019.293141 102*2019.136061 
102*2019.136061 102*2018.978982 
102*2018.978982 102*2018.821902 
102*2018.821902 102*2018.664822 
102*2018.664822 102*2018.507742 
102*2018.507742 102*2018.350663 
102*2018.350663 102*2018.193583 
102*2018.193583 102*2018.036503 
102*2018.036503 102*2017.879423 
102*2017.879423 102*2017.722343 
102*2017.722343 102*2017.565264 
102*2017.565264 102*2017.408184 
102*2017.408184 102*2017.251104 
102*2017.251104 102*2017.094024 
102*2017.094024 102*2016.936945 
102*2016.936945 102*2016.779865 
102*2016.779865 102*2016.622785 
102*2016.622785 102*2016.465705 
102*2016.465705 102*2016.308626 
102*2016.308626 102*2016.151546 
102*2026.662614 102*2026.505534 
102*2026.505534 102*2026.348454 
102*2026.348454 102*2026.191374 
102*2026.191374 102*2026.034295 
102*2026.034295 102*2025.877215 
102*2025.877215 102*2025.720135 
102*2025.720135 102*2025.563055 
102*2025.563055 102*2025.405976 
102*2025.405976 102*2025.248896 
102*2025.248896 102*2025.091816 
102*2025.091816 102*2024.934736 
102*2024.934736 102*2024.777657 
102*2024.777657 102*2024.620577 
102*2024.620577 102*2024.463497 
102*2024.463497 102*2024.306417 
102*2024.306417 102*2024.149337 
102*2024.149337 102*2023.992258 
102*2023.992258 102*2023.835178 
102*2023.835178 102*2023.678098 
102*2023.678098 102*2023.521018 
102*2023.521018 102*2023.363939 
102*2023.363939 102*2023.206859 
102*2023.206859 102*2023.049779 
102*2023.049779 102*2022.892699 
102*2022.892699 102*2022.735620 
102*2022.735620 102*2022.578540 
102*2022.578540 102*2022.421460 
102*2022.421460 102*2022.264380 
102*2022.264380 102*2022.107301 
102*2022.107301 102*2021.950221 
102*2021.950221 102*2021.793141 
102*2021.793141 102*2021.636061 
102*2021.636061 102*2021.478982 
102*2021.478982 102*2021.321902 
102*2021.321902 102*2021.164822 
102*2021.164822 102*2021.007742 
102*2021.007742 102*2020.850663 
102*2020.850663 102*2020.693583 
102*2020.693583 102*2020.536503 
102*2020.536503 102*2020.379423 
102*2020.379423 102*2020.222343 