ZCORN
102*2013.412970 102*2012.906820 
102*2012.906820 102*2012.400670 
102*2012.400670 102*2011.894520 
102*2011.894520 102*2011.388371 
102*2011.388371 102*2010.882221 
102*2010.882221 102*2010.376071 
102*2010.376071 102*2009.869921 
102*2009.869921 102*2009.363771 
102*2009.363771 102*2008.857622 
102*2008.857622 102*2008.351472 
102*2008.351472 102*2007.845322 
102*2007.845322 102*2007.339172 
102*2007.339172 102*2006.833022 
102*2006.833022 102*2006.326873 
102*2006.326873 102*2005.820723 
102*2005.820723 102*2005.314573 
102*2005.314573 102*2004.808423 
102*2004.808423 102*2004.302273 
102*2004.302273 102*2003.796124 
102*2003.796124 102*2003.289974 
102*2003.289974 102*2002.783824 
102*2002.783824 102*2002.277674 
102*2002.277674 102*2001.771524 
102*2001.771524 102*2001.265375 
102*2001.265375 102*2000.759225 
102*2000.759225 102*2000.253075 
102*2000.253075 102*1999.746925 
102*1999.746925 102*1999.240775 
102*1999.240775 102*1998.734625 
102*1998.734625 102*1998.228476 
102*1998.228476 102*1997.722326 
102*1997.722326 102*1997.216176 
102*1997.216176 102*1996.710026 
102*1996.710026 102*1996.203876 
102*1996.203876 102*1995.697727 
102*1995.697727 102*1995.191577 
102*1995.191577 102*1994.685427 
102*1994.685427 102*1994.179277 
102*1994.179277 102*1993.673127 
102*1993.673127 102*1993.166978 
102*1993.166978 102*1992.660828 
102*1992.660828 102*1992.154678 
102*1992.154678 102*1991.648528 
102*1991.648528 102*1991.142378 
102*1991.142378 102*1990.636229 
102*1990.636229 102*1990.130079 
102*1990.130079 102*1989.623929 
102*1989.623929 102*1989.117779 
102*1989.117779 102*1988.611629 
102*1988.611629 102*1988.105480 
102*1988.105480 102*1987.599330 
102*2015.912970 102*2015.406820 
102*2015.406820 102*2014.900670 
102*2014.900670 102*2014.394520 
102*2014.394520 102*2013.888371 
102*2013.888371 102*2013.382221 
102*2013.382221 102*2012.876071 
102*2012.876071 102*2012.369921 
102*2012.369921 102*2011.863771 
102*2011.863771 102*2011.357622 
102*2011.357622 102*2010.851472 
102*2010.851472 102*2010.345322 
102*2010.345322 102*2009.839172 
102*2009.839172 102*2009.333022 
102*2009.333022 102*2008.826873 
102*2008.826873 102*2008.320723 
102*2008.320723 102*2007.814573 
102*2007.814573 102*2007.308423 
102*2007.308423 102*2006.802273 
102*2006.802273 102*2006.296124 
102*2006.296124 102*2005.789974 
102*2005.789974 102*2005.283824 
102*2005.283824 102*2004.777674 
102*2004.777674 102*2004.271524 
102*2004.271524 102*2003.765375 
102*2003.765375 102*2003.259225 
102*2003.259225 102*2002.753075 
102*2002.753075 102*2002.246925 
102*2002.246925 102*2001.740775 
102*2001.740775 102*2001.234625 
102*2001.234625 102*2000.728476 
102*2000.728476 102*2000.222326 
102*2000.222326 102*1999.716176 
102*1999.716176 102*1999.210026 
102*1999.210026 102*1998.703876 
102*1998.703876 102*1998.197727 
102*1998.197727 102*1997.691577 
102*1997.691577 102*1997.185427 
102*1997.185427 102*1996.679277 
102*1996.679277 102*1996.173127 
102*1996.173127 102*1995.666978 
102*1995.666978 102*1995.160828 
102*1995.160828 102*1994.654678 
102*1994.654678 102*1994.148528 
102*1994.148528 102*1993.642378 
102*1993.642378 102*1993.136229 
102*1993.136229 102*1992.630079 
102*1992.630079 102*1992.123929 
102*1992.123929 102*1991.617779 
102*1991.617779 102*1991.111629 
102*1991.111629 102*1990.605480 
102*1990.605480 102*1990.099330 
102*2015.912970 102*2015.406820 
102*2015.406820 102*2014.900670 
102*2014.900670 102*2014.394520 
102*2014.394520 102*2013.888371 
102*2013.888371 102*2013.382221 
102*2013.382221 102*2012.876071 
102*2012.876071 102*2012.369921 
102*2012.369921 102*2011.863771 
102*2011.863771 102*2011.357622 
102*2011.357622 102*2010.851472 
102*2010.851472 102*2010.345322 
102*2010.345322 102*2009.839172 
102*2009.839172 102*2009.333022 
102*2009.333022 102*2008.826873 
102*2008.826873 102*2008.320723 
102*2008.320723 102*2007.814573 
102*2007.814573 102*2007.308423 
102*2007.308423 102*2006.802273 
102*2006.802273 102*2006.296124 
102*2006.296124 102*2005.789974 
102*2005.789974 102*2005.283824 
102*2005.283824 102*2004.777674 
102*2004.777674 102*2004.271524 
102*2004.271524 102*2003.765375 
102*2003.765375 102*2003.259225 
102*2003.259225 102*2002.753075 
102*2002.753075 102*2002.246925 
102*2002.246925 102*2001.740775 
102*2001.740775 102*2001.234625 
102*2001.234625 102*2000.728476 
102*2000.728476 102*2000.222326 
102*2000.222326 102*1999.716176 
102*1999.716176 102*1999.210026 
102*1999.210026 102*1998.703876 
102*1998.703876 102*1998.197727 
102*1998.197727 102*1997.691577 
102*1997.691577 102*1997.185427 
102*1997.185427 102*1996.679277 
102*1996.679277 102*1996.173127 
102*1996.173127 102*1995.666978 
102*1995.666978 102*1995.160828 
102*1995.160828 102*1994.654678 
102*1994.654678 102*1994.148528 
102*1994.148528 102*1993.642378 
102*1993.642378 102*1993.136229 
102*1993.136229 102*1992.630079 
102*1992.630079 102*1992.123929 
102*1992.123929 102*1991.617779 
102*1991.617779 102*1991.111629 
102*1991.111629 102*1990.605480 
102*1990.605480 102*1990.099330 
102*2018.412970 102*2017.906820 
102*2017.906820 102*2017.400670 
102*2017.400670 102*2016.894520 
102*2016.894520 102*2016.388371 
102*2016.388371 102*2015.882221 
102*2015.882221 102*2015.376071 
102*2015.376071 102*2014.869921 
102*2014.869921 102*2014.363771 
102*2014.363771 102*2013.857622 
102*2013.857622 102*2013.351472 
102*2013.351472 102*2012.845322 
102*2012.845322 102*2012.339172 
102*2012.339172 102*2011.833022 
102*2011.833022 102*2011.326873 
102*2011.326873 102*2010.820723 
102*2010.820723 102*2010.314573 
102*2010.314573 102*2009.808423 
102*2009.808423 102*2009.302273 
102*2009.302273 102*2008.796124 
102*2008.796124 102*2008.289974 
102*2008.289974 102*2007.783824 
102*2007.783824 102*2007.277674 
102*2007.277674 102*2006.771524 
102*2006.771524 102*2006.265375 
102*2006.265375 102*2005.759225 
102*2005.759225 102*2005.253075 
102*2005.253075 102*2004.746925 
102*2004.746925 102*2004.240775 
102*2004.240775 102*2003.734625 
102*2003.734625 102*2003.228476 
102*2003.228476 102*2002.722326 
102*2002.722326 102*2002.216176 
102*2002.216176 102*2001.710026 
102*2001.710026 102*2001.203876 
102*2001.203876 102*2000.697727 
102*2000.697727 102*2000.191577 
102*2000.191577 102*1999.685427 
102*1999.685427 102*1999.179277 
102*1999.179277 102*1998.673127 
102*1998.673127 102*1998.166978 
102*1998.166978 102*1997.660828 
102*1997.660828 102*1997.154678 
102*1997.154678 102*1996.648528 
102*1996.648528 102*1996.142378 
102*1996.142378 102*1995.636229 
102*1995.636229 102*1995.130079 
102*1995.130079 102*1994.623929 
102*1994.623929 102*1994.117779 
102*1994.117779 102*1993.611629 
102*1993.611629 102*1993.105480 
102*1993.105480 102*1992.599330 
102*2018.412970 102*2017.906820 
102*2017.906820 102*2017.400670 
102*2017.400670 102*2016.894520 
102*2016.894520 102*2016.388371 
102*2016.388371 102*2015.882221 
102*2015.882221 102*2015.376071 
102*2015.376071 102*2014.869921 
102*2014.869921 102*2014.363771 
102*2014.363771 102*2013.857622 
102*2013.857622 102*2013.351472 
102*2013.351472 102*2012.845322 
102*2012.845322 102*2012.339172 
102*2012.339172 102*2011.833022 
102*2011.833022 102*2011.326873 
102*2011.326873 102*2010.820723 
102*2010.820723 102*2010.314573 
102*2010.314573 102*2009.808423 
102*2009.808423 102*2009.302273 
102*2009.302273 102*2008.796124 
102*2008.796124 102*2008.289974 
102*2008.289974 102*2007.783824 
102*2007.783824 102*2007.277674 
102*2007.277674 102*2006.771524 
102*2006.771524 102*2006.265375 
102*2006.265375 102*2005.759225 
102*2005.759225 102*2005.253075 
102*2005.253075 102*2004.746925 
102*2004.746925 102*2004.240775 
102*2004.240775 102*2003.734625 
102*2003.734625 102*2003.228476 
102*2003.228476 102*2002.722326 
102*2002.722326 102*2002.216176 
102*2002.216176 102*2001.710026 
102*2001.710026 102*2001.203876 
102*2001.203876 102*2000.697727 
102*2000.697727 102*2000.191577 
102*2000.191577 102*1999.685427 
102*1999.685427 102*1999.179277 
102*1999.179277 102*1998.673127 
102*1998.673127 102*1998.166978 
102*1998.166978 102*1997.660828 
102*1997.660828 102*1997.154678 
102*1997.154678 102*1996.648528 
102*1996.648528 102*1996.142378 
102*1996.142378 102*1995.636229 
102*1995.636229 102*1995.130079 
102*1995.130079 102*1994.623929 
102*1994.623929 102*1994.117779 
102*1994.117779 102*1993.611629 
102*1993.611629 102*1993.105480 
102*1993.105480 102*1992.599330 
102*2020.912970 102*2020.406820 
102*2020.406820 102*2019.900670 
102*2019.900670 102*2019.394520 
102*2019.394520 102*2018.888371 
102*2018.888371 102*2018.382221 
102*2018.382221 102*2017.876071 
102*2017.876071 102*2017.369921 
102*2017.369921 102*2016.863771 
102*2016.863771 102*2016.357622 
102*2016.357622 102*2015.851472 
102*2015.851472 102*2015.345322 
102*2015.345322 102*2014.839172 
102*2014.839172 102*2014.333022 
102*2014.333022 102*2013.826873 
102*2013.826873 102*2013.320723 
102*2013.320723 102*2012.814573 
102*2012.814573 102*2012.308423 
102*2012.308423 102*2011.802273 
102*2011.802273 102*2011.296124 
102*2011.296124 102*2010.789974 
102*2010.789974 102*2010.283824 
102*2010.283824 102*2009.777674 
102*2009.777674 102*2009.271524 
102*2009.271524 102*2008.765375 
102*2008.765375 102*2008.259225 
102*2008.259225 102*2007.753075 
102*2007.753075 102*2007.246925 
102*2007.246925 102*2006.740775 
102*2006.740775 102*2006.234625 
102*2006.234625 102*2005.728476 
102*2005.728476 102*2005.222326 
102*2005.222326 102*2004.716176 
102*2004.716176 102*2004.210026 
102*2004.210026 102*2003.703876 
102*2003.703876 102*2003.197727 
102*2003.197727 102*2002.691577 
102*2002.691577 102*2002.185427 
102*2002.185427 102*2001.679277 
102*2001.679277 102*2001.173127 
102*2001.173127 102*2000.666978 
102*2000.666978 102*2000.160828 
102*2000.160828 102*1999.654678 
102*1999.654678 102*1999.148528 
102*1999.148528 102*1998.642378 
102*1998.642378 102*1998.136229 
102*1998.136229 102*1997.630079 
102*1997.630079 102*1997.123929 
102*1997.123929 102*1996.617779 
102*1996.617779 102*1996.111629 
102*1996.111629 102*1995.605480 
102*1995.605480 102*1995.099330 
102*2020.912970 102*2020.406820 
102*2020.406820 102*2019.900670 
102*2019.900670 102*2019.394520 
102*2019.394520 102*2018.888371 
102*2018.888371 102*2018.382221 
102*2018.382221 102*2017.876071 
102*2017.876071 102*2017.369921 
102*2017.369921 102*2016.863771 
102*2016.863771 102*2016.357622 
102*2016.357622 102*2015.851472 
102*2015.851472 102*2015.345322 
102*2015.345322 102*2014.839172 
102*2014.839172 102*2014.333022 
102*2014.333022 102*2013.826873 
102*2013.826873 102*2013.320723 
102*2013.320723 102*2012.814573 
102*2012.814573 102*2012.308423 
102*2012.308423 102*2011.802273 
102*2011.802273 102*2011.296124 
102*2011.296124 102*2010.789974 
102*2010.789974 102*2010.283824 
102*2010.283824 102*2009.777674 
102*2009.777674 102*2009.271524 
102*2009.271524 102*2008.765375 
102*2008.765375 102*2008.259225 
102*2008.259225 102*2007.753075 
102*2007.753075 102*2007.246925 
102*2007.246925 102*2006.740775 
102*2006.740775 102*2006.234625 
102*2006.234625 102*2005.728476 
102*2005.728476 102*2005.222326 
102*2005.222326 102*2004.716176 
102*2004.716176 102*2004.210026 
102*2004.210026 102*2003.703876 
102*2003.703876 102*2003.197727 
102*2003.197727 102*2002.691577 
102*2002.691577 102*2002.185427 
102*2002.185427 102*2001.679277 
102*2001.679277 102*2001.173127 
102*2001.173127 102*2000.666978 
102*2000.666978 102*2000.160828 
102*2000.160828 102*1999.654678 
102*1999.654678 102*1999.148528 
102*1999.148528 102*1998.642378 
102*1998.642378 102*1998.136229 
102*1998.136229 102*1997.630079 
102*1997.630079 102*1997.123929 
102*1997.123929 102*1996.617779 
102*1996.617779 102*1996.111629 
102*1996.111629 102*1995.605480 
102*1995.605480 102*1995.099330 
102*2023.412970 102*2022.906820 
102*2022.906820 102*2022.400670 
102*2022.400670 102*2021.894520 
102*2021.894520 102*2021.388371 
102*2021.388371 102*2020.882221 
102*2020.882221 102*2020.376071 
102*2020.376071 102*2019.869921 
102*2019.869921 102*2019.363771 
102*2019.363771 102*2018.857622 
102*2018.857622 102*2018.351472 
102*2018.351472 102*2017.845322 
102*2017.845322 102*2017.339172 
102*2017.339172 102*2016.833022 
102*2016.833022 102*2016.326873 
102*2016.326873 102*2015.820723 
102*2015.820723 102*2015.314573 
102*2015.314573 102*2014.808423 
102*2014.808423 102*2014.302273 
102*2014.302273 102*2013.796124 
102*2013.796124 102*2013.289974 
102*2013.289974 102*2012.783824 
102*2012.783824 102*2012.277674 
102*2012.277674 102*2011.771524 
102*2011.771524 102*2011.265375 
102*2011.265375 102*2010.759225 
102*2010.759225 102*2010.253075 
102*2010.253075 102*2009.746925 
102*2009.746925 102*2009.240775 
102*2009.240775 102*2008.734625 
102*2008.734625 102*2008.228476 
102*2008.228476 102*2007.722326 
102*2007.722326 102*2007.216176 
102*2007.216176 102*2006.710026 
102*2006.710026 102*2006.203876 
102*2006.203876 102*2005.697727 
102*2005.697727 102*2005.191577 
102*2005.191577 102*2004.685427 
102*2004.685427 102*2004.179277 
102*2004.179277 102*2003.673127 
102*2003.673127 102*2003.166978 
102*2003.166978 102*2002.660828 
102*2002.660828 102*2002.154678 
102*2002.154678 102*2001.648528 
102*2001.648528 102*2001.142378 
102*2001.142378 102*2000.636229 
102*2000.636229 102*2000.130079 
102*2000.130079 102*1999.623929 
102*1999.623929 102*1999.117779 
102*1999.117779 102*1998.611629 
102*1998.611629 102*1998.105480 
102*1998.105480 102*1997.599330 
102*2023.412970 102*2022.906820 
102*2022.906820 102*2022.400670 
102*2022.400670 102*2021.894520 
102*2021.894520 102*2021.388371 
102*2021.388371 102*2020.882221 
102*2020.882221 102*2020.376071 
102*2020.376071 102*2019.869921 
102*2019.869921 102*2019.363771 
102*2019.363771 102*2018.857622 
102*2018.857622 102*2018.351472 
102*2018.351472 102*2017.845322 
102*2017.845322 102*2017.339172 
102*2017.339172 102*2016.833022 
102*2016.833022 102*2016.326873 
102*2016.326873 102*2015.820723 
102*2015.820723 102*2015.314573 
102*2015.314573 102*2014.808423 
102*2014.808423 102*2014.302273 
102*2014.302273 102*2013.796124 
102*2013.796124 102*2013.289974 
102*2013.289974 102*2012.783824 
102*2012.783824 102*2012.277674 
102*2012.277674 102*2011.771524 
102*2011.771524 102*2011.265375 
102*2011.265375 102*2010.759225 
102*2010.759225 102*2010.253075 
102*2010.253075 102*2009.746925 
102*2009.746925 102*2009.240775 
102*2009.240775 102*2008.734625 
102*2008.734625 102*2008.228476 
102*2008.228476 102*2007.722326 
102*2007.722326 102*2007.216176 
102*2007.216176 102*2006.710026 
102*2006.710026 102*2006.203876 
102*2006.203876 102*2005.697727 
102*2005.697727 102*2005.191577 
102*2005.191577 102*2004.685427 
102*2004.685427 102*2004.179277 
102*2004.179277 102*2003.673127 
102*2003.673127 102*2003.166978 
102*2003.166978 102*2002.660828 
102*2002.660828 102*2002.154678 
102*2002.154678 102*2001.648528 
102*2001.648528 102*2001.142378 
102*2001.142378 102*2000.636229 
102*2000.636229 102*2000.130079 
102*2000.130079 102*1999.623929 
102*1999.623929 102*1999.117779 
102*1999.117779 102*1998.611629 
102*1998.611629 102*1998.105480 
102*1998.105480 102*1997.599330 
102*2025.912970 102*2025.406820 
102*2025.406820 102*2024.900670 
102*2024.900670 102*2024.394520 
102*2024.394520 102*2023.888371 
102*2023.888371 102*2023.382221 
102*2023.382221 102*2022.876071 
102*2022.876071 102*2022.369921 
102*2022.369921 102*2021.863771 
102*2021.863771 102*2021.357622 
102*2021.357622 102*2020.851472 
102*2020.851472 102*2020.345322 
102*2020.345322 102*2019.839172 
102*2019.839172 102*2019.333022 
102*2019.333022 102*2018.826873 
102*2018.826873 102*2018.320723 
102*2018.320723 102*2017.814573 
102*2017.814573 102*2017.308423 
102*2017.308423 102*2016.802273 
102*2016.802273 102*2016.296124 
102*2016.296124 102*2015.789974 
102*2015.789974 102*2015.283824 
102*2015.283824 102*2014.777674 
102*2014.777674 102*2014.271524 
102*2014.271524 102*2013.765375 
102*2013.765375 102*2013.259225 
102*2013.259225 102*2012.753075 
102*2012.753075 102*2012.246925 
102*2012.246925 102*2011.740775 
102*2011.740775 102*2011.234625 
102*2011.234625 102*2010.728476 
102*2010.728476 102*2010.222326 
102*2010.222326 102*2009.716176 
102*2009.716176 102*2009.210026 
102*2009.210026 102*2008.703876 
102*2008.703876 102*2008.197727 
102*2008.197727 102*2007.691577 
102*2007.691577 102*2007.185427 
102*2007.185427 102*2006.679277 
102*2006.679277 102*2006.173127 
102*2006.173127 102*2005.666978 
102*2005.666978 102*2005.160828 
102*2005.160828 102*2004.654678 
102*2004.654678 102*2004.148528 
102*2004.148528 102*2003.642378 
102*2003.642378 102*2003.136229 
102*2003.136229 102*2002.630079 
102*2002.630079 102*2002.123929 
102*2002.123929 102*2001.617779 
102*2001.617779 102*2001.111629 
102*2001.111629 102*2000.605480 
102*2000.605480 102*2000.099330 
102*2025.912970 102*2025.406820 
102*2025.406820 102*2024.900670 
102*2024.900670 102*2024.394520 
102*2024.394520 102*2023.888371 
102*2023.888371 102*2023.382221 
102*2023.382221 102*2022.876071 
102*2022.876071 102*2022.369921 
102*2022.369921 102*2021.863771 
102*2021.863771 102*2021.357622 
102*2021.357622 102*2020.851472 
102*2020.851472 102*2020.345322 
102*2020.345322 102*2019.839172 
102*2019.839172 102*2019.333022 
102*2019.333022 102*2018.826873 
102*2018.826873 102*2018.320723 
102*2018.320723 102*2017.814573 
102*2017.814573 102*2017.308423 
102*2017.308423 102*2016.802273 
102*2016.802273 102*2016.296124 
102*2016.296124 102*2015.789974 
102*2015.789974 102*2015.283824 
102*2015.283824 102*2014.777674 
102*2014.777674 102*2014.271524 
102*2014.271524 102*2013.765375 
102*2013.765375 102*2013.259225 
102*2013.259225 102*2012.753075 
102*2012.753075 102*2012.246925 
102*2012.246925 102*2011.740775 
102*2011.740775 102*2011.234625 
102*2011.234625 102*2010.728476 
102*2010.728476 102*2010.222326 
102*2010.222326 102*2009.716176 
102*2009.716176 102*2009.210026 
102*2009.210026 102*2008.703876 
102*2008.703876 102*2008.197727 
102*2008.197727 102*2007.691577 
102*2007.691577 102*2007.185427 
102*2007.185427 102*2006.679277 
102*2006.679277 102*2006.173127 
102*2006.173127 102*2005.666978 
102*2005.666978 102*2005.160828 
102*2005.160828 102*2004.654678 
102*2004.654678 102*2004.148528 
102*2004.148528 102*2003.642378 
102*2003.642378 102*2003.136229 
102*2003.136229 102*2002.630079 
102*2002.630079 102*2002.123929 
102*2002.123929 102*2001.617779 
102*2001.617779 102*2001.111629 
102*2001.111629 102*2000.605480 
102*2000.605480 102*2000.099330 
102*2028.412970 102*2027.906820 
102*2027.906820 102*2027.400670 
102*2027.400670 102*2026.894520 
102*2026.894520 102*2026.388371 
102*2026.388371 102*2025.882221 
102*2025.882221 102*2025.376071 
102*2025.376071 102*2024.869921 
102*2024.869921 102*2024.363771 
102*2024.363771 102*2023.857622 
102*2023.857622 102*2023.351472 
102*2023.351472 102*2022.845322 
102*2022.845322 102*2022.339172 
102*2022.339172 102*2021.833022 
102*2021.833022 102*2021.326873 
102*2021.326873 102*2020.820723 
102*2020.820723 102*2020.314573 
102*2020.314573 102*2019.808423 
102*2019.808423 102*2019.302273 
102*2019.302273 102*2018.796124 
102*2018.796124 102*2018.289974 
102*2018.289974 102*2017.783824 
102*2017.783824 102*2017.277674 
102*2017.277674 102*2016.771524 
102*2016.771524 102*2016.265375 
102*2016.265375 102*2015.759225 
102*2015.759225 102*2015.253075 
102*2015.253075 102*2014.746925 
102*2014.746925 102*2014.240775 
102*2014.240775 102*2013.734625 
102*2013.734625 102*2013.228476 
102*2013.228476 102*2012.722326 
102*2012.722326 102*2012.216176 
102*2012.216176 102*2011.710026 
102*2011.710026 102*2011.203876 
102*2011.203876 102*2010.697727 
102*2010.697727 102*2010.191577 
102*2010.191577 102*2009.685427 
102*2009.685427 102*2009.179277 
102*2009.179277 102*2008.673127 
102*2008.673127 102*2008.166978 
102*2008.166978 102*2007.660828 
102*2007.660828 102*2007.154678 
102*2007.154678 102*2006.648528 
102*2006.648528 102*2006.142378 
102*2006.142378 102*2005.636229 
102*2005.636229 102*2005.130079 
102*2005.130079 102*2004.623929 
102*2004.623929 102*2004.117779 
102*2004.117779 102*2003.611629 
102*2003.611629 102*2003.105480 
102*2003.105480 102*2002.599330 
102*2028.412970 102*2027.906820 
102*2027.906820 102*2027.400670 
102*2027.400670 102*2026.894520 
102*2026.894520 102*2026.388371 
102*2026.388371 102*2025.882221 
102*2025.882221 102*2025.376071 
102*2025.376071 102*2024.869921 
102*2024.869921 102*2024.363771 
102*2024.363771 102*2023.857622 
102*2023.857622 102*2023.351472 
102*2023.351472 102*2022.845322 
102*2022.845322 102*2022.339172 
102*2022.339172 102*2021.833022 
102*2021.833022 102*2021.326873 
102*2021.326873 102*2020.820723 
102*2020.820723 102*2020.314573 
102*2020.314573 102*2019.808423 
102*2019.808423 102*2019.302273 
102*2019.302273 102*2018.796124 
102*2018.796124 102*2018.289974 
102*2018.289974 102*2017.783824 
102*2017.783824 102*2017.277674 
102*2017.277674 102*2016.771524 
102*2016.771524 102*2016.265375 
102*2016.265375 102*2015.759225 
102*2015.759225 102*2015.253075 
102*2015.253075 102*2014.746925 
102*2014.746925 102*2014.240775 
102*2014.240775 102*2013.734625 
102*2013.734625 102*2013.228476 
102*2013.228476 102*2012.722326 
102*2012.722326 102*2012.216176 
102*2012.216176 102*2011.710026 
102*2011.710026 102*2011.203876 
102*2011.203876 102*2010.697727 
102*2010.697727 102*2010.191577 
102*2010.191577 102*2009.685427 
102*2009.685427 102*2009.179277 
102*2009.179277 102*2008.673127 
102*2008.673127 102*2008.166978 
102*2008.166978 102*2007.660828 
102*2007.660828 102*2007.154678 
102*2007.154678 102*2006.648528 
102*2006.648528 102*2006.142378 
102*2006.142378 102*2005.636229 
102*2005.636229 102*2005.130079 
102*2005.130079 102*2004.623929 
102*2004.623929 102*2004.117779 
102*2004.117779 102*2003.611629 
102*2003.611629 102*2003.105480 
102*2003.105480 102*2002.599330 
102*2030.912970 102*2030.406820 
102*2030.406820 102*2029.900670 
102*2029.900670 102*2029.394520 
102*2029.394520 102*2028.888371 
102*2028.888371 102*2028.382221 
102*2028.382221 102*2027.876071 
102*2027.876071 102*2027.369921 
102*2027.369921 102*2026.863771 
102*2026.863771 102*2026.357622 
102*2026.357622 102*2025.851472 
102*2025.851472 102*2025.345322 
102*2025.345322 102*2024.839172 
102*2024.839172 102*2024.333022 
102*2024.333022 102*2023.826873 
102*2023.826873 102*2023.320723 
102*2023.320723 102*2022.814573 
102*2022.814573 102*2022.308423 
102*2022.308423 102*2021.802273 
102*2021.802273 102*2021.296124 
102*2021.296124 102*2020.789974 
102*2020.789974 102*2020.283824 
102*2020.283824 102*2019.777674 
102*2019.777674 102*2019.271524 
102*2019.271524 102*2018.765375 
102*2018.765375 102*2018.259225 
102*2018.259225 102*2017.753075 
102*2017.753075 102*2017.246925 
102*2017.246925 102*2016.740775 
102*2016.740775 102*2016.234625 
102*2016.234625 102*2015.728476 
102*2015.728476 102*2015.222326 
102*2015.222326 102*2014.716176 
102*2014.716176 102*2014.210026 
102*2014.210026 102*2013.703876 
102*2013.703876 102*2013.197727 
102*2013.197727 102*2012.691577 
102*2012.691577 102*2012.185427 
102*2012.185427 102*2011.679277 
102*2011.679277 102*2011.173127 
102*2011.173127 102*2010.666978 
102*2010.666978 102*2010.160828 
102*2010.160828 102*2009.654678 
102*2009.654678 102*2009.148528 
102*2009.148528 102*2008.642378 
102*2008.642378 102*2008.136229 
102*2008.136229 102*2007.630079 
102*2007.630079 102*2007.123929 
102*2007.123929 102*2006.617779 
102*2006.617779 102*2006.111629 
102*2006.111629 102*2005.605480 
102*2005.605480 102*2005.099330 
102*2030.912970 102*2030.406820 
102*2030.406820 102*2029.900670 
102*2029.900670 102*2029.394520 
102*2029.394520 102*2028.888371 
102*2028.888371 102*2028.382221 
102*2028.382221 102*2027.876071 
102*2027.876071 102*2027.369921 
102*2027.369921 102*2026.863771 
102*2026.863771 102*2026.357622 
102*2026.357622 102*2025.851472 
102*2025.851472 102*2025.345322 
102*2025.345322 102*2024.839172 
102*2024.839172 102*2024.333022 
102*2024.333022 102*2023.826873 
102*2023.826873 102*2023.320723 
102*2023.320723 102*2022.814573 
102*2022.814573 102*2022.308423 
102*2022.308423 102*2021.802273 
102*2021.802273 102*2021.296124 
102*2021.296124 102*2020.789974 
102*2020.789974 102*2020.283824 
102*2020.283824 102*2019.777674 
102*2019.777674 102*2019.271524 
102*2019.271524 102*2018.765375 
102*2018.765375 102*2018.259225 
102*2018.259225 102*2017.753075 
102*2017.753075 102*2017.246925 
102*2017.246925 102*2016.740775 
102*2016.740775 102*2016.234625 
102*2016.234625 102*2015.728476 
102*2015.728476 102*2015.222326 
102*2015.222326 102*2014.716176 
102*2014.716176 102*2014.210026 
102*2014.210026 102*2013.703876 
102*2013.703876 102*2013.197727 
102*2013.197727 102*2012.691577 
102*2012.691577 102*2012.185427 
102*2012.185427 102*2011.679277 
102*2011.679277 102*2011.173127 
102*2011.173127 102*2010.666978 
102*2010.666978 102*2010.160828 
102*2010.160828 102*2009.654678 
102*2009.654678 102*2009.148528 
102*2009.148528 102*2008.642378 
102*2008.642378 102*2008.136229 
102*2008.136229 102*2007.630079 
102*2007.630079 102*2007.123929 
102*2007.123929 102*2006.617779 
102*2006.617779 102*2006.111629 
102*2006.111629 102*2005.605480 
102*2005.605480 102*2005.099330 
102*2033.412970 102*2032.906820 
102*2032.906820 102*2032.400670 
102*2032.400670 102*2031.894520 
102*2031.894520 102*2031.388371 
102*2031.388371 102*2030.882221 
102*2030.882221 102*2030.376071 
102*2030.376071 102*2029.869921 
102*2029.869921 102*2029.363771 
102*2029.363771 102*2028.857622 
102*2028.857622 102*2028.351472 
102*2028.351472 102*2027.845322 
102*2027.845322 102*2027.339172 
102*2027.339172 102*2026.833022 
102*2026.833022 102*2026.326873 
102*2026.326873 102*2025.820723 
102*2025.820723 102*2025.314573 
102*2025.314573 102*2024.808423 
102*2024.808423 102*2024.302273 
102*2024.302273 102*2023.796124 
102*2023.796124 102*2023.289974 
102*2023.289974 102*2022.783824 
102*2022.783824 102*2022.277674 
102*2022.277674 102*2021.771524 
102*2021.771524 102*2021.265375 
102*2021.265375 102*2020.759225 
102*2020.759225 102*2020.253075 
102*2020.253075 102*2019.746925 
102*2019.746925 102*2019.240775 
102*2019.240775 102*2018.734625 
102*2018.734625 102*2018.228476 
102*2018.228476 102*2017.722326 
102*2017.722326 102*2017.216176 
102*2017.216176 102*2016.710026 
102*2016.710026 102*2016.203876 
102*2016.203876 102*2015.697727 
102*2015.697727 102*2015.191577 
102*2015.191577 102*2014.685427 
102*2014.685427 102*2014.179277 
102*2014.179277 102*2013.673127 
102*2013.673127 102*2013.166978 
102*2013.166978 102*2012.660828 
102*2012.660828 102*2012.154678 
102*2012.154678 102*2011.648528 
102*2011.648528 102*2011.142378 
102*2011.142378 102*2010.636229 
102*2010.636229 102*2010.130079 
102*2010.130079 102*2009.623929 
102*2009.623929 102*2009.117779 
102*2009.117779 102*2008.611629 
102*2008.611629 102*2008.105480 
102*2008.105480 102*2007.599330 
102*2033.412970 102*2032.906820 
102*2032.906820 102*2032.400670 
102*2032.400670 102*2031.894520 
102*2031.894520 102*2031.388371 
102*2031.388371 102*2030.882221 
102*2030.882221 102*2030.376071 
102*2030.376071 102*2029.869921 
102*2029.869921 102*2029.363771 
102*2029.363771 102*2028.857622 
102*2028.857622 102*2028.351472 
102*2028.351472 102*2027.845322 
102*2027.845322 102*2027.339172 
102*2027.339172 102*2026.833022 
102*2026.833022 102*2026.326873 
102*2026.326873 102*2025.820723 
102*2025.820723 102*2025.314573 
102*2025.314573 102*2024.808423 
102*2024.808423 102*2024.302273 
102*2024.302273 102*2023.796124 
102*2023.796124 102*2023.289974 
102*2023.289974 102*2022.783824 
102*2022.783824 102*2022.277674 
102*2022.277674 102*2021.771524 
102*2021.771524 102*2021.265375 
102*2021.265375 102*2020.759225 
102*2020.759225 102*2020.253075 
102*2020.253075 102*2019.746925 
102*2019.746925 102*2019.240775 
102*2019.240775 102*2018.734625 
102*2018.734625 102*2018.228476 
102*2018.228476 102*2017.722326 
102*2017.722326 102*2017.216176 
102*2017.216176 102*2016.710026 
102*2016.710026 102*2016.203876 
102*2016.203876 102*2015.697727 
102*2015.697727 102*2015.191577 
102*2015.191577 102*2014.685427 
102*2014.685427 102*2014.179277 
102*2014.179277 102*2013.673127 
102*2013.673127 102*2013.166978 
102*2013.166978 102*2012.660828 
102*2012.660828 102*2012.154678 
102*2012.154678 102*2011.648528 
102*2011.648528 102*2011.142378 
102*2011.142378 102*2010.636229 
102*2010.636229 102*2010.130079 
102*2010.130079 102*2009.623929 
102*2009.623929 102*2009.117779 
102*2009.117779 102*2008.611629 
102*2008.611629 102*2008.105480 
102*2008.105480 102*2007.599330 
102*2035.912970 102*2035.406820 
102*2035.406820 102*2034.900670 
102*2034.900670 102*2034.394520 
102*2034.394520 102*2033.888371 
102*2033.888371 102*2033.382221 
102*2033.382221 102*2032.876071 
102*2032.876071 102*2032.369921 
102*2032.369921 102*2031.863771 
102*2031.863771 102*2031.357622 
102*2031.357622 102*2030.851472 
102*2030.851472 102*2030.345322 
102*2030.345322 102*2029.839172 
102*2029.839172 102*2029.333022 
102*2029.333022 102*2028.826873 
102*2028.826873 102*2028.320723 
102*2028.320723 102*2027.814573 
102*2027.814573 102*2027.308423 
102*2027.308423 102*2026.802273 
102*2026.802273 102*2026.296124 
102*2026.296124 102*2025.789974 
102*2025.789974 102*2025.283824 
102*2025.283824 102*2024.777674 
102*2024.777674 102*2024.271524 
102*2024.271524 102*2023.765375 
102*2023.765375 102*2023.259225 
102*2023.259225 102*2022.753075 
102*2022.753075 102*2022.246925 
102*2022.246925 102*2021.740775 
102*2021.740775 102*2021.234625 
102*2021.234625 102*2020.728476 
102*2020.728476 102*2020.222326 
102*2020.222326 102*2019.716176 
102*2019.716176 102*2019.210026 
102*2019.210026 102*2018.703876 
102*2018.703876 102*2018.197727 
102*2018.197727 102*2017.691577 
102*2017.691577 102*2017.185427 
102*2017.185427 102*2016.679277 
102*2016.679277 102*2016.173127 
102*2016.173127 102*2015.666978 
102*2015.666978 102*2015.160828 