ZCORN
102*2034.227810 102*2032.936194 
102*2032.936194 102*2031.644579 
102*2031.644579 102*2030.352963 
102*2030.352963 102*2029.061348 
102*2029.061348 102*2027.769732 
102*2027.769732 102*2026.478117 
102*2026.478117 102*2025.186502 
102*2025.186502 102*2023.894886 
102*2023.894886 102*2022.603271 
102*2022.603271 102*2021.311655 
102*2021.311655 102*2020.020040 
102*2020.020040 102*2018.728424 
102*2018.728424 102*2017.436809 
102*2017.436809 102*2016.145193 
102*2016.145193 102*2014.853578 
102*2014.853578 102*2013.561962 
102*2013.561962 102*2012.270347 
102*2012.270347 102*2010.978731 
102*2010.978731 102*2009.687116 
102*2009.687116 102*2008.395501 
102*2008.395501 102*2007.103885 
102*2007.103885 102*2005.812270 
102*2005.812270 102*2004.520654 
102*2004.520654 102*2003.229039 
102*2003.229039 102*2001.937423 
102*2001.937423 102*2000.645808 
102*2000.645808 102*1999.354192 
102*1999.354192 102*1998.062577 
102*1998.062577 102*1996.770961 
102*1996.770961 102*1995.479346 
102*1995.479346 102*1994.187730 
102*1994.187730 102*1992.896115 
102*1992.896115 102*1991.604499 
102*1991.604499 102*1990.312884 
102*1990.312884 102*1989.021269 
102*1989.021269 102*1987.729653 
102*1987.729653 102*1986.438038 
102*1986.438038 102*1985.146422 
102*1985.146422 102*1983.854807 
102*1983.854807 102*1982.563191 
102*1982.563191 102*1981.271576 
102*1981.271576 102*1979.979960 
102*1979.979960 102*1978.688345 
102*1978.688345 102*1977.396729 
102*1977.396729 102*1976.105114 
102*1976.105114 102*1974.813498 
102*1974.813498 102*1973.521883 
102*1973.521883 102*1972.230268 
102*1972.230268 102*1970.938652 
102*1970.938652 102*1969.647037 
102*1969.647037 102*1968.355421 
102*2036.727810 102*2035.436194 
102*2035.436194 102*2034.144579 
102*2034.144579 102*2032.852963 
102*2032.852963 102*2031.561348 
102*2031.561348 102*2030.269732 
102*2030.269732 102*2028.978117 
102*2028.978117 102*2027.686502 
102*2027.686502 102*2026.394886 
102*2026.394886 102*2025.103271 
102*2025.103271 102*2023.811655 
102*2023.811655 102*2022.520040 
102*2022.520040 102*2021.228424 
102*2021.228424 102*2019.936809 
102*2019.936809 102*2018.645193 
102*2018.645193 102*2017.353578 
102*2017.353578 102*2016.061962 
102*2016.061962 102*2014.770347 
102*2014.770347 102*2013.478731 
102*2013.478731 102*2012.187116 
102*2012.187116 102*2010.895501 
102*2010.895501 102*2009.603885 
102*2009.603885 102*2008.312270 
102*2008.312270 102*2007.020654 
102*2007.020654 102*2005.729039 
102*2005.729039 102*2004.437423 
102*2004.437423 102*2003.145808 
102*2003.145808 102*2001.854192 
102*2001.854192 102*2000.562577 
102*2000.562577 102*1999.270961 
102*1999.270961 102*1997.979346 
102*1997.979346 102*1996.687730 
102*1996.687730 102*1995.396115 
102*1995.396115 102*1994.104499 
102*1994.104499 102*1992.812884 
102*1992.812884 102*1991.521269 
102*1991.521269 102*1990.229653 
102*1990.229653 102*1988.938038 
102*1988.938038 102*1987.646422 
102*1987.646422 102*1986.354807 
102*1986.354807 102*1985.063191 
102*1985.063191 102*1983.771576 
102*1983.771576 102*1982.479960 
102*1982.479960 102*1981.188345 
102*1981.188345 102*1979.896729 
102*1979.896729 102*1978.605114 
102*1978.605114 102*1977.313498 
102*1977.313498 102*1976.021883 
102*1976.021883 102*1974.730268 
102*1974.730268 102*1973.438652 
102*1973.438652 102*1972.147037 
102*1972.147037 102*1970.855421 
102*2036.727810 102*2035.436194 
102*2035.436194 102*2034.144579 
102*2034.144579 102*2032.852963 
102*2032.852963 102*2031.561348 
102*2031.561348 102*2030.269732 
102*2030.269732 102*2028.978117 
102*2028.978117 102*2027.686502 
102*2027.686502 102*2026.394886 
102*2026.394886 102*2025.103271 
102*2025.103271 102*2023.811655 
102*2023.811655 102*2022.520040 
102*2022.520040 102*2021.228424 
102*2021.228424 102*2019.936809 
102*2019.936809 102*2018.645193 
102*2018.645193 102*2017.353578 
102*2017.353578 102*2016.061962 
102*2016.061962 102*2014.770347 
102*2014.770347 102*2013.478731 
102*2013.478731 102*2012.187116 
102*2012.187116 102*2010.895501 
102*2010.895501 102*2009.603885 
102*2009.603885 102*2008.312270 
102*2008.312270 102*2007.020654 
102*2007.020654 102*2005.729039 
102*2005.729039 102*2004.437423 
102*2004.437423 102*2003.145808 
102*2003.145808 102*2001.854192 
102*2001.854192 102*2000.562577 
102*2000.562577 102*1999.270961 
102*1999.270961 102*1997.979346 
102*1997.979346 102*1996.687730 
102*1996.687730 102*1995.396115 
102*1995.396115 102*1994.104499 
102*1994.104499 102*1992.812884 
102*1992.812884 102*1991.521269 
102*1991.521269 102*1990.229653 
102*1990.229653 102*1988.938038 
102*1988.938038 102*1987.646422 
102*1987.646422 102*1986.354807 
102*1986.354807 102*1985.063191 
102*1985.063191 102*1983.771576 
102*1983.771576 102*1982.479960 
102*1982.479960 102*1981.188345 
102*1981.188345 102*1979.896729 
102*1979.896729 102*1978.605114 
102*1978.605114 102*1977.313498 
102*1977.313498 102*1976.021883 
102*1976.021883 102*1974.730268 
102*1974.730268 102*1973.438652 
102*1973.438652 102*1972.147037 
102*1972.147037 102*1970.855421 
102*2039.227810 102*2037.936194 
102*2037.936194 102*2036.644579 
102*2036.644579 102*2035.352963 
102*2035.352963 102*2034.061348 
102*2034.061348 102*2032.769732 
102*2032.769732 102*2031.478117 
102*2031.478117 102*2030.186502 
102*2030.186502 102*2028.894886 
102*2028.894886 102*2027.603271 
102*2027.603271 102*2026.311655 
102*2026.311655 102*2025.020040 
102*2025.020040 102*2023.728424 
102*2023.728424 102*2022.436809 
102*2022.436809 102*2021.145193 
102*2021.145193 102*2019.853578 
102*2019.853578 102*2018.561962 
102*2018.561962 102*2017.270347 
102*2017.270347 102*2015.978731 
102*2015.978731 102*2014.687116 
102*2014.687116 102*2013.395501 
102*2013.395501 102*2012.103885 
102*2012.103885 102*2010.812270 
102*2010.812270 102*2009.520654 
102*2009.520654 102*2008.229039 
102*2008.229039 102*2006.937423 
102*2006.937423 102*2005.645808 
102*2005.645808 102*2004.354192 
102*2004.354192 102*2003.062577 
102*2003.062577 102*2001.770961 
102*2001.770961 102*2000.479346 
102*2000.479346 102*1999.187730 
102*1999.187730 102*1997.896115 
102*1997.896115 102*1996.604499 
102*1996.604499 102*1995.312884 
102*1995.312884 102*1994.021269 
102*1994.021269 102*1992.729653 
102*1992.729653 102*1991.438038 
102*1991.438038 102*1990.146422 
102*1990.146422 102*1988.854807 
102*1988.854807 102*1987.563191 
102*1987.563191 102*1986.271576 
102*1986.271576 102*1984.979960 
102*1984.979960 102*1983.688345 
102*1983.688345 102*1982.396729 
102*1982.396729 102*1981.105114 
102*1981.105114 102*1979.813498 
102*1979.813498 102*1978.521883 
102*1978.521883 102*1977.230268 
102*1977.230268 102*1975.938652 
102*1975.938652 102*1974.647037 
102*1974.647037 102*1973.355421 
102*2039.227810 102*2037.936194 
102*2037.936194 102*2036.644579 
102*2036.644579 102*2035.352963 
102*2035.352963 102*2034.061348 
102*2034.061348 102*2032.769732 
102*2032.769732 102*2031.478117 
102*2031.478117 102*2030.186502 
102*2030.186502 102*2028.894886 
102*2028.894886 102*2027.603271 
102*2027.603271 102*2026.311655 
102*2026.311655 102*2025.020040 
102*2025.020040 102*2023.728424 
102*2023.728424 102*2022.436809 
102*2022.436809 102*2021.145193 
102*2021.145193 102*2019.853578 
102*2019.853578 102*2018.561962 
102*2018.561962 102*2017.270347 
102*2017.270347 102*2015.978731 
102*2015.978731 102*2014.687116 
102*2014.687116 102*2013.395501 
102*2013.395501 102*2012.103885 
102*2012.103885 102*2010.812270 
102*2010.812270 102*2009.520654 
102*2009.520654 102*2008.229039 
102*2008.229039 102*2006.937423 
102*2006.937423 102*2005.645808 
102*2005.645808 102*2004.354192 
102*2004.354192 102*2003.062577 
102*2003.062577 102*2001.770961 
102*2001.770961 102*2000.479346 
102*2000.479346 102*1999.187730 
102*1999.187730 102*1997.896115 
102*1997.896115 102*1996.604499 
102*1996.604499 102*1995.312884 
102*1995.312884 102*1994.021269 
102*1994.021269 102*1992.729653 
102*1992.729653 102*1991.438038 
102*1991.438038 102*1990.146422 
102*1990.146422 102*1988.854807 
102*1988.854807 102*1987.563191 
102*1987.563191 102*1986.271576 
102*1986.271576 102*1984.979960 
102*1984.979960 102*1983.688345 
102*1983.688345 102*1982.396729 
102*1982.396729 102*1981.105114 
102*1981.105114 102*1979.813498 
102*1979.813498 102*1978.521883 
102*1978.521883 102*1977.230268 
102*1977.230268 102*1975.938652 
102*1975.938652 102*1974.647037 
102*1974.647037 102*1973.355421 
102*2041.727810 102*2040.436194 
102*2040.436194 102*2039.144579 
102*2039.144579 102*2037.852963 
102*2037.852963 102*2036.561348 
102*2036.561348 102*2035.269732 
102*2035.269732 102*2033.978117 
102*2033.978117 102*2032.686502 
102*2032.686502 102*2031.394886 
102*2031.394886 102*2030.103271 
102*2030.103271 102*2028.811655 
102*2028.811655 102*2027.520040 
102*2027.520040 102*2026.228424 
102*2026.228424 102*2024.936809 
102*2024.936809 102*2023.645193 
102*2023.645193 102*2022.353578 
102*2022.353578 102*2021.061962 
102*2021.061962 102*2019.770347 
102*2019.770347 102*2018.478731 
102*2018.478731 102*2017.187116 
102*2017.187116 102*2015.895501 
102*2015.895501 102*2014.603885 
102*2014.603885 102*2013.312270 
102*2013.312270 102*2012.020654 
102*2012.020654 102*2010.729039 
102*2010.729039 102*2009.437423 
102*2009.437423 102*2008.145808 
102*2008.145808 102*2006.854192 
102*2006.854192 102*2005.562577 
102*2005.562577 102*2004.270961 
102*2004.270961 102*2002.979346 
102*2002.979346 102*2001.687730 
102*2001.687730 102*2000.396115 
102*2000.396115 102*1999.104499 
102*1999.104499 102*1997.812884 
102*1997.812884 102*1996.521269 
102*1996.521269 102*1995.229653 
102*1995.229653 102*1993.938038 
102*1993.938038 102*1992.646422 
102*1992.646422 102*1991.354807 
102*1991.354807 102*1990.063191 
102*1990.063191 102*1988.771576 
102*1988.771576 102*1987.479960 
102*1987.479960 102*1986.188345 
102*1986.188345 102*1984.896729 
102*1984.896729 102*1983.605114 
102*1983.605114 102*1982.313498 
102*1982.313498 102*1981.021883 
102*1981.021883 102*1979.730268 
102*1979.730268 102*1978.438652 
102*1978.438652 102*1977.147037 
102*1977.147037 102*1975.855421 
102*2041.727810 102*2040.436194 
102*2040.436194 102*2039.144579 
102*2039.144579 102*2037.852963 
102*2037.852963 102*2036.561348 
102*2036.561348 102*2035.269732 
102*2035.269732 102*2033.978117 
102*2033.978117 102*2032.686502 
102*2032.686502 102*2031.394886 
102*2031.394886 102*2030.103271 
102*2030.103271 102*2028.811655 
102*2028.811655 102*2027.520040 
102*2027.520040 102*2026.228424 
102*2026.228424 102*2024.936809 
102*2024.936809 102*2023.645193 
102*2023.645193 102*2022.353578 
102*2022.353578 102*2021.061962 
102*2021.061962 102*2019.770347 
102*2019.770347 102*2018.478731 
102*2018.478731 102*2017.187116 
102*2017.187116 102*2015.895501 
102*2015.895501 102*2014.603885 
102*2014.603885 102*2013.312270 
102*2013.312270 102*2012.020654 
102*2012.020654 102*2010.729039 
102*2010.729039 102*2009.437423 
102*2009.437423 102*2008.145808 
102*2008.145808 102*2006.854192 
102*2006.854192 102*2005.562577 
102*2005.562577 102*2004.270961 
102*2004.270961 102*2002.979346 
102*2002.979346 102*2001.687730 
102*2001.687730 102*2000.396115 
102*2000.396115 102*1999.104499 
102*1999.104499 102*1997.812884 
102*1997.812884 102*1996.521269 
102*1996.521269 102*1995.229653 
102*1995.229653 102*1993.938038 
102*1993.938038 102*1992.646422 
102*1992.646422 102*1991.354807 
102*1991.354807 102*1990.063191 
102*1990.063191 102*1988.771576 
102*1988.771576 102*1987.479960 
102*1987.479960 102*1986.188345 
102*1986.188345 102*1984.896729 
102*1984.896729 102*1983.605114 
102*1983.605114 102*1982.313498 
102*1982.313498 102*1981.021883 
102*1981.021883 102*1979.730268 
102*1979.730268 102*1978.438652 
102*1978.438652 102*1977.147037 
102*1977.147037 102*1975.855421 
102*2044.227810 102*2042.936194 
102*2042.936194 102*2041.644579 
102*2041.644579 102*2040.352963 
102*2040.352963 102*2039.061348 
102*2039.061348 102*2037.769732 
102*2037.769732 102*2036.478117 
102*2036.478117 102*2035.186502 
102*2035.186502 102*2033.894886 
102*2033.894886 102*2032.603271 
102*2032.603271 102*2031.311655 
102*2031.311655 102*2030.020040 
102*2030.020040 102*2028.728424 
102*2028.728424 102*2027.436809 
102*2027.436809 102*2026.145193 
102*2026.145193 102*2024.853578 
102*2024.853578 102*2023.561962 
102*2023.561962 102*2022.270347 
102*2022.270347 102*2020.978731 
102*2020.978731 102*2019.687116 
102*2019.687116 102*2018.395501 
102*2018.395501 102*2017.103885 
102*2017.103885 102*2015.812270 
102*2015.812270 102*2014.520654 
102*2014.520654 102*2013.229039 
102*2013.229039 102*2011.937423 
102*2011.937423 102*2010.645808 
102*2010.645808 102*2009.354192 
102*2009.354192 102*2008.062577 
102*2008.062577 102*2006.770961 
102*2006.770961 102*2005.479346 
102*2005.479346 102*2004.187730 
102*2004.187730 102*2002.896115 
102*2002.896115 102*2001.604499 
102*2001.604499 102*2000.312884 
102*2000.312884 102*1999.021269 
102*1999.021269 102*1997.729653 
102*1997.729653 102*1996.438038 
102*1996.438038 102*1995.146422 
102*1995.146422 102*1993.854807 
102*1993.854807 102*1992.563191 
102*1992.563191 102*1991.271576 
102*1991.271576 102*1989.979960 
102*1989.979960 102*1988.688345 
102*1988.688345 102*1987.396729 
102*1987.396729 102*1986.105114 
102*1986.105114 102*1984.813498 
102*1984.813498 102*1983.521883 
102*1983.521883 102*1982.230268 
102*1982.230268 102*1980.938652 
102*1980.938652 102*1979.647037 
102*1979.647037 102*1978.355421 
102*2044.227810 102*2042.936194 
102*2042.936194 102*2041.644579 
102*2041.644579 102*2040.352963 
102*2040.352963 102*2039.061348 
102*2039.061348 102*2037.769732 
102*2037.769732 102*2036.478117 
102*2036.478117 102*2035.186502 
102*2035.186502 102*2033.894886 
102*2033.894886 102*2032.603271 
102*2032.603271 102*2031.311655 
102*2031.311655 102*2030.020040 
102*2030.020040 102*2028.728424 
102*2028.728424 102*2027.436809 
102*2027.436809 102*2026.145193 
102*2026.145193 102*2024.853578 
102*2024.853578 102*2023.561962 
102*2023.561962 102*2022.270347 
102*2022.270347 102*2020.978731 
102*2020.978731 102*2019.687116 
102*2019.687116 102*2018.395501 
102*2018.395501 102*2017.103885 
102*2017.103885 102*2015.812270 
102*2015.812270 102*2014.520654 
102*2014.520654 102*2013.229039 
102*2013.229039 102*2011.937423 
102*2011.937423 102*2010.645808 
102*2010.645808 102*2009.354192 
102*2009.354192 102*2008.062577 
102*2008.062577 102*2006.770961 
102*2006.770961 102*2005.479346 
102*2005.479346 102*2004.187730 
102*2004.187730 102*2002.896115 
102*2002.896115 102*2001.604499 
102*2001.604499 102*2000.312884 
102*2000.312884 102*1999.021269 
102*1999.021269 102*1997.729653 
102*1997.729653 102*1996.438038 
102*1996.438038 102*1995.146422 
102*1995.146422 102*1993.854807 
102*1993.854807 102*1992.563191 
102*1992.563191 102*1991.271576 
102*1991.271576 102*1989.979960 
102*1989.979960 102*1988.688345 
102*1988.688345 102*1987.396729 
102*1987.396729 102*1986.105114 
102*1986.105114 102*1984.813498 
102*1984.813498 102*1983.521883 
102*1983.521883 102*1982.230268 
102*1982.230268 102*1980.938652 
102*1980.938652 102*1979.647037 
102*1979.647037 102*1978.355421 
102*2046.727810 102*2045.436194 
102*2045.436194 102*2044.144579 
102*2044.144579 102*2042.852963 
102*2042.852963 102*2041.561348 
102*2041.561348 102*2040.269732 
102*2040.269732 102*2038.978117 
102*2038.978117 102*2037.686502 
102*2037.686502 102*2036.394886 
102*2036.394886 102*2035.103271 
102*2035.103271 102*2033.811655 
102*2033.811655 102*2032.520040 
102*2032.520040 102*2031.228424 
102*2031.228424 102*2029.936809 
102*2029.936809 102*2028.645193 
102*2028.645193 102*2027.353578 
102*2027.353578 102*2026.061962 
102*2026.061962 102*2024.770347 
102*2024.770347 102*2023.478731 
102*2023.478731 102*2022.187116 
102*2022.187116 102*2020.895501 
102*2020.895501 102*2019.603885 
102*2019.603885 102*2018.312270 
102*2018.312270 102*2017.020654 
102*2017.020654 102*2015.729039 
102*2015.729039 102*2014.437423 
102*2014.437423 102*2013.145808 
102*2013.145808 102*2011.854192 
102*2011.854192 102*2010.562577 
102*2010.562577 102*2009.270961 
102*2009.270961 102*2007.979346 
102*2007.979346 102*2006.687730 
102*2006.687730 102*2005.396115 
102*2005.396115 102*2004.104499 
102*2004.104499 102*2002.812884 
102*2002.812884 102*2001.521269 
102*2001.521269 102*2000.229653 
102*2000.229653 102*1998.938038 
102*1998.938038 102*1997.646422 
102*1997.646422 102*1996.354807 
102*1996.354807 102*1995.063191 
102*1995.063191 102*1993.771576 
102*1993.771576 102*1992.479960 
102*1992.479960 102*1991.188345 
102*1991.188345 102*1989.896729 
102*1989.896729 102*1988.605114 
102*1988.605114 102*1987.313498 
102*1987.313498 102*1986.021883 
102*1986.021883 102*1984.730268 
102*1984.730268 102*1983.438652 
102*1983.438652 102*1982.147037 
102*1982.147037 102*1980.855421 
102*2046.727810 102*2045.436194 
102*2045.436194 102*2044.144579 
102*2044.144579 102*2042.852963 
102*2042.852963 102*2041.561348 
102*2041.561348 102*2040.269732 
102*2040.269732 102*2038.978117 
102*2038.978117 102*2037.686502 
102*2037.686502 102*2036.394886 
102*2036.394886 102*2035.103271 
102*2035.103271 102*2033.811655 
102*2033.811655 102*2032.520040 
102*2032.520040 102*2031.228424 
102*2031.228424 102*2029.936809 
102*2029.936809 102*2028.645193 
102*2028.645193 102*2027.353578 
102*2027.353578 102*2026.061962 
102*2026.061962 102*2024.770347 
102*2024.770347 102*2023.478731 
102*2023.478731 102*2022.187116 
102*2022.187116 102*2020.895501 
102*2020.895501 102*2019.603885 
102*2019.603885 102*2018.312270 
102*2018.312270 102*2017.020654 
102*2017.020654 102*2015.729039 
102*2015.729039 102*2014.437423 
102*2014.437423 102*2013.145808 
102*2013.145808 102*2011.854192 
102*2011.854192 102*2010.562577 
102*2010.562577 102*2009.270961 
102*2009.270961 102*2007.979346 
102*2007.979346 102*2006.687730 
102*2006.687730 102*2005.396115 
102*2005.396115 102*2004.104499 
102*2004.104499 102*2002.812884 
102*2002.812884 102*2001.521269 
102*2001.521269 102*2000.229653 
102*2000.229653 102*1998.938038 
102*1998.938038 102*1997.646422 
102*1997.646422 102*1996.354807 
102*1996.354807 102*1995.063191 
102*1995.063191 102*1993.771576 
102*1993.771576 102*1992.479960 
102*1992.479960 102*1991.188345 
102*1991.188345 102*1989.896729 
102*1989.896729 102*1988.605114 
102*1988.605114 102*1987.313498 
102*1987.313498 102*1986.021883 
102*1986.021883 102*1984.730268 
102*1984.730268 102*1983.438652 
102*1983.438652 102*1982.147037 
102*1982.147037 102*1980.855421 
102*2049.227810 102*2047.936194 
102*2047.936194 102*2046.644579 
102*2046.644579 102*2045.352963 
102*2045.352963 102*2044.061348 
102*2044.061348 102*2042.769732 
102*2042.769732 102*2041.478117 
102*2041.478117 102*2040.186502 
102*2040.186502 102*2038.894886 
102*2038.894886 102*2037.603271 
102*2037.603271 102*2036.311655 
102*2036.311655 102*2035.020040 
102*2035.020040 102*2033.728424 
102*2033.728424 102*2032.436809 
102*2032.436809 102*2031.145193 
102*2031.145193 102*2029.853578 
102*2029.853578 102*2028.561962 
102*2028.561962 102*2027.270347 
102*2027.270347 102*2025.978731 
102*2025.978731 102*2024.687116 
102*2024.687116 102*2023.395501 
102*2023.395501 102*2022.103885 
102*2022.103885 102*2020.812270 
102*2020.812270 102*2019.520654 
102*2019.520654 102*2018.229039 
102*2018.229039 102*2016.937423 
102*2016.937423 102*2015.645808 
102*2015.645808 102*2014.354192 
102*2014.354192 102*2013.062577 
102*2013.062577 102*2011.770961 
102*2011.770961 102*2010.479346 
102*2010.479346 102*2009.187730 
102*2009.187730 102*2007.896115 
102*2007.896115 102*2006.604499 
102*2006.604499 102*2005.312884 
102*2005.312884 102*2004.021269 
102*2004.021269 102*2002.729653 
102*2002.729653 102*2001.438038 
102*2001.438038 102*2000.146422 
102*2000.146422 102*1998.854807 
102*1998.854807 102*1997.563191 
102*1997.563191 102*1996.271576 
102*1996.271576 102*1994.979960 
102*1994.979960 102*1993.688345 
102*1993.688345 102*1992.396729 
102*1992.396729 102*1991.105114 
102*1991.105114 102*1989.813498 
102*1989.813498 102*1988.521883 
102*1988.521883 102*1987.230268 
102*1987.230268 102*1985.938652 
102*1985.938652 102*1984.647037 
102*1984.647037 102*1983.355421 
102*2049.227810 102*2047.936194 
102*2047.936194 102*2046.644579 
102*2046.644579 102*2045.352963 
102*2045.352963 102*2044.061348 
102*2044.061348 102*2042.769732 
102*2042.769732 102*2041.478117 
102*2041.478117 102*2040.186502 
102*2040.186502 102*2038.894886 
102*2038.894886 102*2037.603271 
102*2037.603271 102*2036.311655 
102*2036.311655 102*2035.020040 
102*2035.020040 102*2033.728424 
102*2033.728424 102*2032.436809 
102*2032.436809 102*2031.145193 
102*2031.145193 102*2029.853578 
102*2029.853578 102*2028.561962 
102*2028.561962 102*2027.270347 
102*2027.270347 102*2025.978731 
102*2025.978731 102*2024.687116 
102*2024.687116 102*2023.395501 
102*2023.395501 102*2022.103885 
102*2022.103885 102*2020.812270 
102*2020.812270 102*2019.520654 
102*2019.520654 102*2018.229039 
102*2018.229039 102*2016.937423 
102*2016.937423 102*2015.645808 
102*2015.645808 102*2014.354192 
102*2014.354192 102*2013.062577 
102*2013.062577 102*2011.770961 
102*2011.770961 102*2010.479346 
102*2010.479346 102*2009.187730 
102*2009.187730 102*2007.896115 
102*2007.896115 102*2006.604499 
102*2006.604499 102*2005.312884 
102*2005.312884 102*2004.021269 
102*2004.021269 102*2002.729653 
102*2002.729653 102*2001.438038 
102*2001.438038 102*2000.146422 
102*2000.146422 102*1998.854807 
102*1998.854807 102*1997.563191 
102*1997.563191 102*1996.271576 
102*1996.271576 102*1994.979960 
102*1994.979960 102*1993.688345 
102*1993.688345 102*1992.396729 
102*1992.396729 102*1991.105114 
102*1991.105114 102*1989.813498 
102*1989.813498 102*1988.521883 
102*1988.521883 102*1987.230268 
102*1987.230268 102*1985.938652 
102*1985.938652 102*1984.647037 
102*1984.647037 102*1983.355421 
102*2051.727810 102*2050.436194 
102*2050.436194 102*2049.144579 
102*2049.144579 102*2047.852963 
102*2047.852963 102*2046.561348 
102*2046.561348 102*2045.269732 
102*2045.269732 102*2043.978117 
102*2043.978117 102*2042.686502 
102*2042.686502 102*2041.394886 
102*2041.394886 102*2040.103271 
102*2040.103271 102*2038.811655 
102*2038.811655 102*2037.520040 
102*2037.520040 102*2036.228424 
102*2036.228424 102*2034.936809 
102*2034.936809 102*2033.645193 
102*2033.645193 102*2032.353578 
102*2032.353578 102*2031.061962 
102*2031.061962 102*2029.770347 
102*2029.770347 102*2028.478731 
102*2028.478731 102*2027.187116 
102*2027.187116 102*2025.895501 
102*2025.895501 102*2024.603885 
102*2024.603885 102*2023.312270 
102*2023.312270 102*2022.020654 
102*2022.020654 102*2020.729039 
102*2020.729039 102*2019.437423 
102*2019.437423 102*2018.145808 
102*2018.145808 102*2016.854192 
102*2016.854192 102*2015.562577 
102*2015.562577 102*2014.270961 
102*2014.270961 102*2012.979346 
102*2012.979346 102*2011.687730 
102*2011.687730 102*2010.396115 
102*2010.396115 102*2009.104499 
102*2009.104499 102*2007.812884 
102*2007.812884 102*2006.521269 
102*2006.521269 102*2005.229653 
102*2005.229653 102*2003.938038 
102*2003.938038 102*2002.646422 
102*2002.646422 102*2001.354807 
102*2001.354807 102*2000.063191 
102*2000.063191 102*1998.771576 
102*1998.771576 102*1997.479960 
102*1997.479960 102*1996.188345 
102*1996.188345 102*1994.896729 
102*1994.896729 102*1993.605114 
102*1993.605114 102*1992.313498 
102*1992.313498 102*1991.021883 
102*1991.021883 102*1989.730268 
102*1989.730268 102*1988.438652 
102*1988.438652 102*1987.147037 
102*1987.147037 102*1985.855421 
102*2051.727810 102*2050.436194 
102*2050.436194 102*2049.144579 
102*2049.144579 102*2047.852963 
102*2047.852963 102*2046.561348 
102*2046.561348 102*2045.269732 
102*2045.269732 102*2043.978117 
102*2043.978117 102*2042.686502 
102*2042.686502 102*2041.394886 
102*2041.394886 102*2040.103271 
102*2040.103271 102*2038.811655 
102*2038.811655 102*2037.520040 
102*2037.520040 102*2036.228424 
102*2036.228424 102*2034.936809 
102*2034.936809 102*2033.645193 
102*2033.645193 102*2032.353578 
102*2032.353578 102*2031.061962 
102*2031.061962 102*2029.770347 
102*2029.770347 102*2028.478731 
102*2028.478731 102*2027.187116 
102*2027.187116 102*2025.895501 
102*2025.895501 102*2024.603885 
102*2024.603885 102*2023.312270 
102*2023.312270 102*2022.020654 
102*2022.020654 102*2020.729039 
102*2020.729039 102*2019.437423 
102*2019.437423 102*2018.145808 
102*2018.145808 102*2016.854192 
102*2016.854192 102*2015.562577 
102*2015.562577 102*2014.270961 
102*2014.270961 102*2012.979346 
102*2012.979346 102*2011.687730 
102*2011.687730 102*2010.396115 
102*2010.396115 102*2009.104499 
102*2009.104499 102*2007.812884 
102*2007.812884 102*2006.521269 
102*2006.521269 102*2005.229653 
102*2005.229653 102*2003.938038 
102*2003.938038 102*2002.646422 
102*2002.646422 102*2001.354807 
102*2001.354807 102*2000.063191 
102*2000.063191 102*1998.771576 
102*1998.771576 102*1997.479960 
102*1997.479960 102*1996.188345 
102*1996.188345 102*1994.896729 
102*1994.896729 102*1993.605114 
102*1993.605114 102*1992.313498 
102*1992.313498 102*1991.021883 
102*1991.021883 102*1989.730268 
102*1989.730268 102*1988.438652 
102*1988.438652 102*1987.147037 
102*1987.147037 102*1985.855421 
102*2054.227810 102*2052.936194 
102*2052.936194 102*2051.644579 
102*2051.644579 102*2050.352963 
102*2050.352963 102*2049.061348 
102*2049.061348 102*2047.769732 
102*2047.769732 102*2046.478117 
102*2046.478117 102*2045.186502 
102*2045.186502 102*2043.894886 
102*2043.894886 102*2042.603271 
102*2042.603271 102*2041.311655 
102*2041.311655 102*2040.020040 
102*2040.020040 102*2038.728424 
102*2038.728424 102*2037.436809 
102*2037.436809 102*2036.145193 
102*2036.145193 102*2034.853578 
102*2034.853578 102*2033.561962 
102*2033.561962 102*2032.270347 
102*2032.270347 102*2030.978731 
102*2030.978731 102*2029.687116 
102*2029.687116 102*2028.395501 
102*2028.395501 102*2027.103885 
102*2027.103885 102*2025.812270 
102*2025.812270 102*2024.520654 
102*2024.520654 102*2023.229039 
102*2023.229039 102*2021.937423 
102*2021.937423 102*2020.645808 
102*2020.645808 102*2019.354192 
102*2019.354192 102*2018.062577 
102*2018.062577 102*2016.770961 
102*2016.770961 102*2015.479346 
102*2015.479346 102*2014.187730 
102*2014.187730 102*2012.896115 
102*2012.896115 102*2011.604499 
102*2011.604499 102*2010.312884 
102*2010.312884 102*2009.021269 
102*2009.021269 102*2007.729653 
102*2007.729653 102*2006.438038 
102*2006.438038 102*2005.146422 
102*2005.146422 102*2003.854807 
102*2003.854807 102*2002.563191 
102*2002.563191 102*2001.271576 
102*2001.271576 102*1999.979960 
102*1999.979960 102*1998.688345 
102*1998.688345 102*1997.396729 
102*1997.396729 102*1996.105114 
102*1996.105114 102*1994.813498 
102*1994.813498 102*1993.521883 
102*1993.521883 102*1992.230268 
102*1992.230268 102*1990.938652 
102*1990.938652 102*1989.647037 
102*1989.647037 102*1988.355421 
102*2054.227810 102*2052.936194 
102*2052.936194 102*2051.644579 
102*2051.644579 102*2050.352963 
102*2050.352963 102*2049.061348 
102*2049.061348 102*2047.769732 
102*2047.769732 102*2046.478117 
102*2046.478117 102*2045.186502 
102*2045.186502 102*2043.894886 
102*2043.894886 102*2042.603271 
102*2042.603271 102*2041.311655 
102*2041.311655 102*2040.020040 
102*2040.020040 102*2038.728424 
102*2038.728424 102*2037.436809 
102*2037.436809 102*2036.145193 
102*2036.145193 102*2034.853578 
102*2034.853578 102*2033.561962 
102*2033.561962 102*2032.270347 
102*2032.270347 102*2030.978731 
102*2030.978731 102*2029.687116 
102*2029.687116 102*2028.395501 
102*2028.395501 102*2027.103885 
102*2027.103885 102*2025.812270 
102*2025.812270 102*2024.520654 
102*2024.520654 102*2023.229039 
102*2023.229039 102*2021.937423 
102*2021.937423 102*2020.645808 
102*2020.645808 102*2019.354192 
102*2019.354192 102*2018.062577 
102*2018.062577 102*2016.770961 
102*2016.770961 102*2015.479346 
102*2015.479346 102*2014.187730 
102*2014.187730 102*2012.896115 
102*2012.896115 102*2011.604499 
102*2011.604499 102*2010.312884 
102*2010.312884 102*2009.021269 
102*2009.021269 102*2007.729653 
102*2007.729653 102*2006.438038 
102*2006.438038 102*2005.146422 
102*2005.146422 102*2003.854807 
102*2003.854807 102*2002.563191 
102*2002.563191 102*2001.271576 
102*2001.271576 102*1999.979960 
102*1999.979960 102*1998.688345 
102*1998.688345 102*1997.396729 
102*1997.396729 102*1996.105114 
102*1996.105114 102*1994.813498 
102*1994.813498 102*1993.521883 
102*1993.521883 102*1992.230268 
102*1992.230268 102*1990.938652 
102*1990.938652 102*1989.647037 
102*1989.647037 102*1988.355421 
102*2056.727810 102*2055.436194 
102*2055.436194 102*2054.144579 
102*2054.144579 102*2052.852963 
102*2052.852963 102*2051.561348 
102*2051.561348 102*2050.269732 
102*2050.269732 102*2048.978117 
102*2048.978117 102*2047.686502 
102*2047.686502 102*2046.394886 
102*2046.394886 102*2045.103271 
102*2045.103271 102*2043.811655 
102*2043.811655 102*2042.520040 
102*2042.520040 102*2041.228424 
102*2041.228424 102*2039.936809 
102*2039.936809 102*2038.645193 
102*2038.645193 102*2037.353578 
102*2037.353578 102*2036.061962 
102*2036.061962 102*2034.770347 
102*2034.770347 102*2033.478731 
102*2033.478731 102*2032.187116 
102*2032.187116 102*2030.895501 
102*2030.895501 102*2029.603885 
102*2029.603885 102*2028.312270 
102*2028.312270 102*2027.020654 
102*2027.020654 102*2025.729039 
102*2025.729039 102*2024.437423 
102*2024.437423 102*2023.145808 
102*2023.145808 102*2021.854192 
102*2021.854192 102*2020.562577 
102*2020.562577 102*2019.270961 
102*2019.270961 102*2017.979346 
102*2017.979346 102*2016.687730 
102*2016.687730 102*2015.396115 
102*2015.396115 102*2014.104499 
102*2014.104499 102*2012.812884 
102*2012.812884 102*2011.521269 
102*2011.521269 102*2010.229653 
102*2010.229653 102*2008.938038 
102*2008.938038 102*2007.646422 
102*2007.646422 102*2006.354807 
102*2006.354807 102*2005.063191 
102*2005.063191 102*2003.771576 