ZCORN
102*2086.983522 102*2083.701125 
102*2083.701125 102*2080.418728 
102*2080.418728 102*2077.136331 
102*2077.136331 102*2073.853934 
102*2073.853934 102*2070.571537 
102*2070.571537 102*2067.289140 
102*2067.289140 102*2064.006743 
102*2064.006743 102*2060.724346 
102*2060.724346 102*2057.441949 
102*2057.441949 102*2054.159552 
102*2054.159552 102*2050.877155 
102*2050.877155 102*2047.594757 
102*2047.594757 102*2044.312360 
102*2044.312360 102*2041.029963 
102*2041.029963 102*2037.747566 
102*2037.747566 102*2034.465169 
102*2034.465169 102*2031.182772 
102*2031.182772 102*2027.900375 
102*2027.900375 102*2024.617978 
102*2024.617978 102*2021.335581 
102*2021.335581 102*2018.053184 
102*2018.053184 102*2014.770787 
102*2014.770787 102*2011.488390 
102*2011.488390 102*2008.205993 
102*2008.205993 102*2004.923596 
102*2004.923596 102*2001.641199 
102*2001.641199 102*1998.358801 
102*1998.358801 102*1995.076404 
102*1995.076404 102*1991.794007 
102*1991.794007 102*1988.511610 
102*1988.511610 102*1985.229213 
102*1985.229213 102*1981.946816 
102*1981.946816 102*1978.664419 
102*1978.664419 102*1975.382022 
102*1975.382022 102*1972.099625 
102*1972.099625 102*1968.817228 
102*1968.817228 102*1965.534831 
102*1965.534831 102*1962.252434 
102*1962.252434 102*1958.970037 
102*1958.970037 102*1955.687640 
102*1955.687640 102*1952.405243 
102*1952.405243 102*1949.122845 
102*1949.122845 102*1945.840448 
102*1945.840448 102*1942.558051 
102*1942.558051 102*1939.275654 
102*1939.275654 102*1935.993257 
102*1935.993257 102*1932.710860 
102*1932.710860 102*1929.428463 
102*1929.428463 102*1926.146066 
102*1926.146066 102*1922.863669 
102*1922.863669 102*1919.581272 
102*2089.483522 102*2086.201125 
102*2086.201125 102*2082.918728 
102*2082.918728 102*2079.636331 
102*2079.636331 102*2076.353934 
102*2076.353934 102*2073.071537 
102*2073.071537 102*2069.789140 
102*2069.789140 102*2066.506743 
102*2066.506743 102*2063.224346 
102*2063.224346 102*2059.941949 
102*2059.941949 102*2056.659552 
102*2056.659552 102*2053.377155 
102*2053.377155 102*2050.094757 
102*2050.094757 102*2046.812360 
102*2046.812360 102*2043.529963 
102*2043.529963 102*2040.247566 
102*2040.247566 102*2036.965169 
102*2036.965169 102*2033.682772 
102*2033.682772 102*2030.400375 
102*2030.400375 102*2027.117978 
102*2027.117978 102*2023.835581 
102*2023.835581 102*2020.553184 
102*2020.553184 102*2017.270787 
102*2017.270787 102*2013.988390 
102*2013.988390 102*2010.705993 
102*2010.705993 102*2007.423596 
102*2007.423596 102*2004.141199 
102*2004.141199 102*2000.858801 
102*2000.858801 102*1997.576404 
102*1997.576404 102*1994.294007 
102*1994.294007 102*1991.011610 
102*1991.011610 102*1987.729213 
102*1987.729213 102*1984.446816 
102*1984.446816 102*1981.164419 
102*1981.164419 102*1977.882022 
102*1977.882022 102*1974.599625 
102*1974.599625 102*1971.317228 
102*1971.317228 102*1968.034831 
102*1968.034831 102*1964.752434 
102*1964.752434 102*1961.470037 
102*1961.470037 102*1958.187640 
102*1958.187640 102*1954.905243 
102*1954.905243 102*1951.622845 
102*1951.622845 102*1948.340448 
102*1948.340448 102*1945.058051 
102*1945.058051 102*1941.775654 
102*1941.775654 102*1938.493257 
102*1938.493257 102*1935.210860 
102*1935.210860 102*1931.928463 
102*1931.928463 102*1928.646066 
102*1928.646066 102*1925.363669 
102*1925.363669 102*1922.081272 
102*2089.483522 102*2086.201125 
102*2086.201125 102*2082.918728 
102*2082.918728 102*2079.636331 
102*2079.636331 102*2076.353934 
102*2076.353934 102*2073.071537 
102*2073.071537 102*2069.789140 
102*2069.789140 102*2066.506743 
102*2066.506743 102*2063.224346 
102*2063.224346 102*2059.941949 
102*2059.941949 102*2056.659552 
102*2056.659552 102*2053.377155 
102*2053.377155 102*2050.094757 
102*2050.094757 102*2046.812360 
102*2046.812360 102*2043.529963 
102*2043.529963 102*2040.247566 
102*2040.247566 102*2036.965169 
102*2036.965169 102*2033.682772 
102*2033.682772 102*2030.400375 
102*2030.400375 102*2027.117978 
102*2027.117978 102*2023.835581 
102*2023.835581 102*2020.553184 
102*2020.553184 102*2017.270787 
102*2017.270787 102*2013.988390 
102*2013.988390 102*2010.705993 
102*2010.705993 102*2007.423596 
102*2007.423596 102*2004.141199 
102*2004.141199 102*2000.858801 
102*2000.858801 102*1997.576404 
102*1997.576404 102*1994.294007 
102*1994.294007 102*1991.011610 
102*1991.011610 102*1987.729213 
102*1987.729213 102*1984.446816 
102*1984.446816 102*1981.164419 
102*1981.164419 102*1977.882022 
102*1977.882022 102*1974.599625 
102*1974.599625 102*1971.317228 
102*1971.317228 102*1968.034831 
102*1968.034831 102*1964.752434 
102*1964.752434 102*1961.470037 
102*1961.470037 102*1958.187640 
102*1958.187640 102*1954.905243 
102*1954.905243 102*1951.622845 
102*1951.622845 102*1948.340448 
102*1948.340448 102*1945.058051 
102*1945.058051 102*1941.775654 
102*1941.775654 102*1938.493257 
102*1938.493257 102*1935.210860 
102*1935.210860 102*1931.928463 
102*1931.928463 102*1928.646066 
102*1928.646066 102*1925.363669 
102*1925.363669 102*1922.081272 
102*2091.983522 102*2088.701125 
102*2088.701125 102*2085.418728 
102*2085.418728 102*2082.136331 
102*2082.136331 102*2078.853934 
102*2078.853934 102*2075.571537 
102*2075.571537 102*2072.289140 
102*2072.289140 102*2069.006743 
102*2069.006743 102*2065.724346 
102*2065.724346 102*2062.441949 
102*2062.441949 102*2059.159552 
102*2059.159552 102*2055.877155 
102*2055.877155 102*2052.594757 
102*2052.594757 102*2049.312360 
102*2049.312360 102*2046.029963 
102*2046.029963 102*2042.747566 
102*2042.747566 102*2039.465169 
102*2039.465169 102*2036.182772 
102*2036.182772 102*2032.900375 
102*2032.900375 102*2029.617978 
102*2029.617978 102*2026.335581 
102*2026.335581 102*2023.053184 
102*2023.053184 102*2019.770787 
102*2019.770787 102*2016.488390 
102*2016.488390 102*2013.205993 
102*2013.205993 102*2009.923596 
102*2009.923596 102*2006.641199 
102*2006.641199 102*2003.358801 
102*2003.358801 102*2000.076404 
102*2000.076404 102*1996.794007 
102*1996.794007 102*1993.511610 
102*1993.511610 102*1990.229213 
102*1990.229213 102*1986.946816 
102*1986.946816 102*1983.664419 
102*1983.664419 102*1980.382022 
102*1980.382022 102*1977.099625 
102*1977.099625 102*1973.817228 
102*1973.817228 102*1970.534831 
102*1970.534831 102*1967.252434 
102*1967.252434 102*1963.970037 
102*1963.970037 102*1960.687640 
102*1960.687640 102*1957.405243 
102*1957.405243 102*1954.122845 
102*1954.122845 102*1950.840448 
102*1950.840448 102*1947.558051 
102*1947.558051 102*1944.275654 
102*1944.275654 102*1940.993257 
102*1940.993257 102*1937.710860 
102*1937.710860 102*1934.428463 
102*1934.428463 102*1931.146066 
102*1931.146066 102*1927.863669 
102*1927.863669 102*1924.581272 
102*2091.983522 102*2088.701125 
102*2088.701125 102*2085.418728 
102*2085.418728 102*2082.136331 
102*2082.136331 102*2078.853934 
102*2078.853934 102*2075.571537 
102*2075.571537 102*2072.289140 
102*2072.289140 102*2069.006743 
102*2069.006743 102*2065.724346 
102*2065.724346 102*2062.441949 
102*2062.441949 102*2059.159552 
102*2059.159552 102*2055.877155 
102*2055.877155 102*2052.594757 
102*2052.594757 102*2049.312360 
102*2049.312360 102*2046.029963 
102*2046.029963 102*2042.747566 
102*2042.747566 102*2039.465169 
102*2039.465169 102*2036.182772 
102*2036.182772 102*2032.900375 
102*2032.900375 102*2029.617978 
102*2029.617978 102*2026.335581 
102*2026.335581 102*2023.053184 
102*2023.053184 102*2019.770787 
102*2019.770787 102*2016.488390 
102*2016.488390 102*2013.205993 
102*2013.205993 102*2009.923596 
102*2009.923596 102*2006.641199 
102*2006.641199 102*2003.358801 
102*2003.358801 102*2000.076404 
102*2000.076404 102*1996.794007 
102*1996.794007 102*1993.511610 
102*1993.511610 102*1990.229213 
102*1990.229213 102*1986.946816 
102*1986.946816 102*1983.664419 
102*1983.664419 102*1980.382022 
102*1980.382022 102*1977.099625 
102*1977.099625 102*1973.817228 
102*1973.817228 102*1970.534831 
102*1970.534831 102*1967.252434 
102*1967.252434 102*1963.970037 
102*1963.970037 102*1960.687640 
102*1960.687640 102*1957.405243 
102*1957.405243 102*1954.122845 
102*1954.122845 102*1950.840448 
102*1950.840448 102*1947.558051 
102*1947.558051 102*1944.275654 
102*1944.275654 102*1940.993257 
102*1940.993257 102*1937.710860 
102*1937.710860 102*1934.428463 
102*1934.428463 102*1931.146066 
102*1931.146066 102*1927.863669 
102*1927.863669 102*1924.581272 
102*2094.483522 102*2091.201125 
102*2091.201125 102*2087.918728 
102*2087.918728 102*2084.636331 
102*2084.636331 102*2081.353934 
102*2081.353934 102*2078.071537 
102*2078.071537 102*2074.789140 
102*2074.789140 102*2071.506743 
102*2071.506743 102*2068.224346 
102*2068.224346 102*2064.941949 
102*2064.941949 102*2061.659552 
102*2061.659552 102*2058.377155 
102*2058.377155 102*2055.094757 
102*2055.094757 102*2051.812360 
102*2051.812360 102*2048.529963 
102*2048.529963 102*2045.247566 
102*2045.247566 102*2041.965169 
102*2041.965169 102*2038.682772 
102*2038.682772 102*2035.400375 
102*2035.400375 102*2032.117978 
102*2032.117978 102*2028.835581 
102*2028.835581 102*2025.553184 
102*2025.553184 102*2022.270787 
102*2022.270787 102*2018.988390 
102*2018.988390 102*2015.705993 
102*2015.705993 102*2012.423596 
102*2012.423596 102*2009.141199 
102*2009.141199 102*2005.858801 
102*2005.858801 102*2002.576404 
102*2002.576404 102*1999.294007 
102*1999.294007 102*1996.011610 
102*1996.011610 102*1992.729213 
102*1992.729213 102*1989.446816 
102*1989.446816 102*1986.164419 
102*1986.164419 102*1982.882022 
102*1982.882022 102*1979.599625 
102*1979.599625 102*1976.317228 
102*1976.317228 102*1973.034831 
102*1973.034831 102*1969.752434 
102*1969.752434 102*1966.470037 
102*1966.470037 102*1963.187640 
102*1963.187640 102*1959.905243 
102*1959.905243 102*1956.622845 
102*1956.622845 102*1953.340448 
102*1953.340448 102*1950.058051 
102*1950.058051 102*1946.775654 
102*1946.775654 102*1943.493257 
102*1943.493257 102*1940.210860 
102*1940.210860 102*1936.928463 
102*1936.928463 102*1933.646066 
102*1933.646066 102*1930.363669 
102*1930.363669 102*1927.081272 
102*2094.483522 102*2091.201125 
102*2091.201125 102*2087.918728 
102*2087.918728 102*2084.636331 
102*2084.636331 102*2081.353934 
102*2081.353934 102*2078.071537 
102*2078.071537 102*2074.789140 
102*2074.789140 102*2071.506743 
102*2071.506743 102*2068.224346 
102*2068.224346 102*2064.941949 
102*2064.941949 102*2061.659552 
102*2061.659552 102*2058.377155 
102*2058.377155 102*2055.094757 
102*2055.094757 102*2051.812360 
102*2051.812360 102*2048.529963 
102*2048.529963 102*2045.247566 
102*2045.247566 102*2041.965169 
102*2041.965169 102*2038.682772 
102*2038.682772 102*2035.400375 
102*2035.400375 102*2032.117978 
102*2032.117978 102*2028.835581 
102*2028.835581 102*2025.553184 
102*2025.553184 102*2022.270787 
102*2022.270787 102*2018.988390 
102*2018.988390 102*2015.705993 
102*2015.705993 102*2012.423596 
102*2012.423596 102*2009.141199 
102*2009.141199 102*2005.858801 
102*2005.858801 102*2002.576404 
102*2002.576404 102*1999.294007 
102*1999.294007 102*1996.011610 
102*1996.011610 102*1992.729213 
102*1992.729213 102*1989.446816 
102*1989.446816 102*1986.164419 
102*1986.164419 102*1982.882022 
102*1982.882022 102*1979.599625 
102*1979.599625 102*1976.317228 
102*1976.317228 102*1973.034831 
102*1973.034831 102*1969.752434 
102*1969.752434 102*1966.470037 
102*1966.470037 102*1963.187640 
102*1963.187640 102*1959.905243 
102*1959.905243 102*1956.622845 
102*1956.622845 102*1953.340448 
102*1953.340448 102*1950.058051 
102*1950.058051 102*1946.775654 
102*1946.775654 102*1943.493257 
102*1943.493257 102*1940.210860 
102*1940.210860 102*1936.928463 
102*1936.928463 102*1933.646066 
102*1933.646066 102*1930.363669 
102*1930.363669 102*1927.081272 
102*2096.983522 102*2093.701125 
102*2093.701125 102*2090.418728 
102*2090.418728 102*2087.136331 
102*2087.136331 102*2083.853934 
102*2083.853934 102*2080.571537 
102*2080.571537 102*2077.289140 
102*2077.289140 102*2074.006743 
102*2074.006743 102*2070.724346 
102*2070.724346 102*2067.441949 
102*2067.441949 102*2064.159552 
102*2064.159552 102*2060.877155 
102*2060.877155 102*2057.594757 
102*2057.594757 102*2054.312360 
102*2054.312360 102*2051.029963 
102*2051.029963 102*2047.747566 
102*2047.747566 102*2044.465169 
102*2044.465169 102*2041.182772 
102*2041.182772 102*2037.900375 
102*2037.900375 102*2034.617978 
102*2034.617978 102*2031.335581 
102*2031.335581 102*2028.053184 
102*2028.053184 102*2024.770787 
102*2024.770787 102*2021.488390 
102*2021.488390 102*2018.205993 
102*2018.205993 102*2014.923596 
102*2014.923596 102*2011.641199 
102*2011.641199 102*2008.358801 
102*2008.358801 102*2005.076404 
102*2005.076404 102*2001.794007 
102*2001.794007 102*1998.511610 
102*1998.511610 102*1995.229213 
102*1995.229213 102*1991.946816 
102*1991.946816 102*1988.664419 
102*1988.664419 102*1985.382022 
102*1985.382022 102*1982.099625 
102*1982.099625 102*1978.817228 
102*1978.817228 102*1975.534831 
102*1975.534831 102*1972.252434 
102*1972.252434 102*1968.970037 
102*1968.970037 102*1965.687640 
102*1965.687640 102*1962.405243 
102*1962.405243 102*1959.122845 
102*1959.122845 102*1955.840448 
102*1955.840448 102*1952.558051 
102*1952.558051 102*1949.275654 
102*1949.275654 102*1945.993257 
102*1945.993257 102*1942.710860 
102*1942.710860 102*1939.428463 
102*1939.428463 102*1936.146066 
102*1936.146066 102*1932.863669 
102*1932.863669 102*1929.581272 
102*2096.983522 102*2093.701125 
102*2093.701125 102*2090.418728 
102*2090.418728 102*2087.136331 
102*2087.136331 102*2083.853934 
102*2083.853934 102*2080.571537 
102*2080.571537 102*2077.289140 
102*2077.289140 102*2074.006743 
102*2074.006743 102*2070.724346 
102*2070.724346 102*2067.441949 
102*2067.441949 102*2064.159552 
102*2064.159552 102*2060.877155 
102*2060.877155 102*2057.594757 
102*2057.594757 102*2054.312360 
102*2054.312360 102*2051.029963 
102*2051.029963 102*2047.747566 
102*2047.747566 102*2044.465169 
102*2044.465169 102*2041.182772 
102*2041.182772 102*2037.900375 
102*2037.900375 102*2034.617978 
102*2034.617978 102*2031.335581 
102*2031.335581 102*2028.053184 
102*2028.053184 102*2024.770787 
102*2024.770787 102*2021.488390 
102*2021.488390 102*2018.205993 
102*2018.205993 102*2014.923596 
102*2014.923596 102*2011.641199 
102*2011.641199 102*2008.358801 
102*2008.358801 102*2005.076404 
102*2005.076404 102*2001.794007 
102*2001.794007 102*1998.511610 
102*1998.511610 102*1995.229213 
102*1995.229213 102*1991.946816 
102*1991.946816 102*1988.664419 
102*1988.664419 102*1985.382022 
102*1985.382022 102*1982.099625 
102*1982.099625 102*1978.817228 
102*1978.817228 102*1975.534831 
102*1975.534831 102*1972.252434 
102*1972.252434 102*1968.970037 
102*1968.970037 102*1965.687640 
102*1965.687640 102*1962.405243 
102*1962.405243 102*1959.122845 
102*1959.122845 102*1955.840448 
102*1955.840448 102*1952.558051 
102*1952.558051 102*1949.275654 
102*1949.275654 102*1945.993257 
102*1945.993257 102*1942.710860 
102*1942.710860 102*1939.428463 
102*1939.428463 102*1936.146066 
102*1936.146066 102*1932.863669 
102*1932.863669 102*1929.581272 
102*2099.483522 102*2096.201125 
102*2096.201125 102*2092.918728 
102*2092.918728 102*2089.636331 
102*2089.636331 102*2086.353934 
102*2086.353934 102*2083.071537 
102*2083.071537 102*2079.789140 
102*2079.789140 102*2076.506743 
102*2076.506743 102*2073.224346 
102*2073.224346 102*2069.941949 
102*2069.941949 102*2066.659552 
102*2066.659552 102*2063.377155 
102*2063.377155 102*2060.094757 
102*2060.094757 102*2056.812360 
102*2056.812360 102*2053.529963 
102*2053.529963 102*2050.247566 
102*2050.247566 102*2046.965169 
102*2046.965169 102*2043.682772 
102*2043.682772 102*2040.400375 
102*2040.400375 102*2037.117978 
102*2037.117978 102*2033.835581 
102*2033.835581 102*2030.553184 
102*2030.553184 102*2027.270787 
102*2027.270787 102*2023.988390 
102*2023.988390 102*2020.705993 
102*2020.705993 102*2017.423596 
102*2017.423596 102*2014.141199 
102*2014.141199 102*2010.858801 
102*2010.858801 102*2007.576404 
102*2007.576404 102*2004.294007 
102*2004.294007 102*2001.011610 
102*2001.011610 102*1997.729213 
102*1997.729213 102*1994.446816 
102*1994.446816 102*1991.164419 
102*1991.164419 102*1987.882022 
102*1987.882022 102*1984.599625 
102*1984.599625 102*1981.317228 
102*1981.317228 102*1978.034831 
102*1978.034831 102*1974.752434 
102*1974.752434 102*1971.470037 
102*1971.470037 102*1968.187640 
102*1968.187640 102*1964.905243 
102*1964.905243 102*1961.622845 
102*1961.622845 102*1958.340448 
102*1958.340448 102*1955.058051 
102*1955.058051 102*1951.775654 
102*1951.775654 102*1948.493257 
102*1948.493257 102*1945.210860 
102*1945.210860 102*1941.928463 
102*1941.928463 102*1938.646066 
102*1938.646066 102*1935.363669 
102*1935.363669 102*1932.081272 
102*2099.483522 102*2096.201125 
102*2096.201125 102*2092.918728 
102*2092.918728 102*2089.636331 
102*2089.636331 102*2086.353934 
102*2086.353934 102*2083.071537 
102*2083.071537 102*2079.789140 
102*2079.789140 102*2076.506743 
102*2076.506743 102*2073.224346 
102*2073.224346 102*2069.941949 
102*2069.941949 102*2066.659552 
102*2066.659552 102*2063.377155 
102*2063.377155 102*2060.094757 
102*2060.094757 102*2056.812360 
102*2056.812360 102*2053.529963 
102*2053.529963 102*2050.247566 
102*2050.247566 102*2046.965169 
102*2046.965169 102*2043.682772 
102*2043.682772 102*2040.400375 
102*2040.400375 102*2037.117978 
102*2037.117978 102*2033.835581 
102*2033.835581 102*2030.553184 
102*2030.553184 102*2027.270787 
102*2027.270787 102*2023.988390 
102*2023.988390 102*2020.705993 
102*2020.705993 102*2017.423596 
102*2017.423596 102*2014.141199 
102*2014.141199 102*2010.858801 
102*2010.858801 102*2007.576404 
102*2007.576404 102*2004.294007 
102*2004.294007 102*2001.011610 
102*2001.011610 102*1997.729213 
102*1997.729213 102*1994.446816 
102*1994.446816 102*1991.164419 
102*1991.164419 102*1987.882022 
102*1987.882022 102*1984.599625 
102*1984.599625 102*1981.317228 
102*1981.317228 102*1978.034831 
102*1978.034831 102*1974.752434 
102*1974.752434 102*1971.470037 
102*1971.470037 102*1968.187640 
102*1968.187640 102*1964.905243 
102*1964.905243 102*1961.622845 
102*1961.622845 102*1958.340448 
102*1958.340448 102*1955.058051 
102*1955.058051 102*1951.775654 
102*1951.775654 102*1948.493257 
102*1948.493257 102*1945.210860 
102*1945.210860 102*1941.928463 
102*1941.928463 102*1938.646066 
102*1938.646066 102*1935.363669 
102*1935.363669 102*1932.081272 
102*2101.983522 102*2098.701125 
102*2098.701125 102*2095.418728 
102*2095.418728 102*2092.136331 
102*2092.136331 102*2088.853934 
102*2088.853934 102*2085.571537 
102*2085.571537 102*2082.289140 
102*2082.289140 102*2079.006743 
102*2079.006743 102*2075.724346 
102*2075.724346 102*2072.441949 
102*2072.441949 102*2069.159552 
102*2069.159552 102*2065.877155 
102*2065.877155 102*2062.594757 
102*2062.594757 102*2059.312360 
102*2059.312360 102*2056.029963 
102*2056.029963 102*2052.747566 
102*2052.747566 102*2049.465169 
102*2049.465169 102*2046.182772 
102*2046.182772 102*2042.900375 
102*2042.900375 102*2039.617978 
102*2039.617978 102*2036.335581 
102*2036.335581 102*2033.053184 
102*2033.053184 102*2029.770787 
102*2029.770787 102*2026.488390 
102*2026.488390 102*2023.205993 
102*2023.205993 102*2019.923596 
102*2019.923596 102*2016.641199 
102*2016.641199 102*2013.358801 
102*2013.358801 102*2010.076404 
102*2010.076404 102*2006.794007 
102*2006.794007 102*2003.511610 
102*2003.511610 102*2000.229213 
102*2000.229213 102*1996.946816 
102*1996.946816 102*1993.664419 
102*1993.664419 102*1990.382022 
102*1990.382022 102*1987.099625 
102*1987.099625 102*1983.817228 
102*1983.817228 102*1980.534831 
102*1980.534831 102*1977.252434 
102*1977.252434 102*1973.970037 
102*1973.970037 102*1970.687640 
102*1970.687640 102*1967.405243 
102*1967.405243 102*1964.122845 
102*1964.122845 102*1960.840448 
102*1960.840448 102*1957.558051 
102*1957.558051 102*1954.275654 
102*1954.275654 102*1950.993257 
102*1950.993257 102*1947.710860 
102*1947.710860 102*1944.428463 
102*1944.428463 102*1941.146066 
102*1941.146066 102*1937.863669 
102*1937.863669 102*1934.581272 
102*2101.983522 102*2098.701125 
102*2098.701125 102*2095.418728 
102*2095.418728 102*2092.136331 
102*2092.136331 102*2088.853934 
102*2088.853934 102*2085.571537 
102*2085.571537 102*2082.289140 
102*2082.289140 102*2079.006743 
102*2079.006743 102*2075.724346 
102*2075.724346 102*2072.441949 
102*2072.441949 102*2069.159552 
102*2069.159552 102*2065.877155 
102*2065.877155 102*2062.594757 
102*2062.594757 102*2059.312360 
102*2059.312360 102*2056.029963 
102*2056.029963 102*2052.747566 
102*2052.747566 102*2049.465169 
102*2049.465169 102*2046.182772 
102*2046.182772 102*2042.900375 
102*2042.900375 102*2039.617978 
102*2039.617978 102*2036.335581 
102*2036.335581 102*2033.053184 
102*2033.053184 102*2029.770787 
102*2029.770787 102*2026.488390 
102*2026.488390 102*2023.205993 
102*2023.205993 102*2019.923596 
102*2019.923596 102*2016.641199 
102*2016.641199 102*2013.358801 
102*2013.358801 102*2010.076404 
102*2010.076404 102*2006.794007 
102*2006.794007 102*2003.511610 
102*2003.511610 102*2000.229213 
102*2000.229213 102*1996.946816 
102*1996.946816 102*1993.664419 
102*1993.664419 102*1990.382022 
102*1990.382022 102*1987.099625 
102*1987.099625 102*1983.817228 
102*1983.817228 102*1980.534831 
102*1980.534831 102*1977.252434 
102*1977.252434 102*1973.970037 
102*1973.970037 102*1970.687640 
102*1970.687640 102*1967.405243 
102*1967.405243 102*1964.122845 
102*1964.122845 102*1960.840448 
102*1960.840448 102*1957.558051 
102*1957.558051 102*1954.275654 
102*1954.275654 102*1950.993257 
102*1950.993257 102*1947.710860 
102*1947.710860 102*1944.428463 
102*1944.428463 102*1941.146066 
102*1941.146066 102*1937.863669 
102*1937.863669 102*1934.581272 
102*2104.483522 102*2101.201125 
102*2101.201125 102*2097.918728 
102*2097.918728 102*2094.636331 
102*2094.636331 102*2091.353934 
102*2091.353934 102*2088.071537 
102*2088.071537 102*2084.789140 
102*2084.789140 102*2081.506743 
102*2081.506743 102*2078.224346 
102*2078.224346 102*2074.941949 
102*2074.941949 102*2071.659552 
102*2071.659552 102*2068.377155 
102*2068.377155 102*2065.094757 
102*2065.094757 102*2061.812360 
102*2061.812360 102*2058.529963 
102*2058.529963 102*2055.247566 
102*2055.247566 102*2051.965169 
102*2051.965169 102*2048.682772 
102*2048.682772 102*2045.400375 
102*2045.400375 102*2042.117978 
102*2042.117978 102*2038.835581 
102*2038.835581 102*2035.553184 
102*2035.553184 102*2032.270787 
102*2032.270787 102*2028.988390 
102*2028.988390 102*2025.705993 
102*2025.705993 102*2022.423596 
102*2022.423596 102*2019.141199 
102*2019.141199 102*2015.858801 
102*2015.858801 102*2012.576404 
102*2012.576404 102*2009.294007 
102*2009.294007 102*2006.011610 
102*2006.011610 102*2002.729213 
102*2002.729213 102*1999.446816 
102*1999.446816 102*1996.164419 
102*1996.164419 102*1992.882022 
102*1992.882022 102*1989.599625 
102*1989.599625 102*1986.317228 
102*1986.317228 102*1983.034831 
102*1983.034831 102*1979.752434 
102*1979.752434 102*1976.470037 
102*1976.470037 102*1973.187640 
102*1973.187640 102*1969.905243 
102*1969.905243 102*1966.622845 
102*1966.622845 102*1963.340448 
102*1963.340448 102*1960.058051 
102*1960.058051 102*1956.775654 
102*1956.775654 102*1953.493257 
102*1953.493257 102*1950.210860 
102*1950.210860 102*1946.928463 
102*1946.928463 102*1943.646066 
102*1943.646066 102*1940.363669 
102*1940.363669 102*1937.081272 
102*2104.483522 102*2101.201125 
102*2101.201125 102*2097.918728 
102*2097.918728 102*2094.636331 
102*2094.636331 102*2091.353934 
102*2091.353934 102*2088.071537 
102*2088.071537 102*2084.789140 
102*2084.789140 102*2081.506743 
102*2081.506743 102*2078.224346 
102*2078.224346 102*2074.941949 
102*2074.941949 102*2071.659552 
102*2071.659552 102*2068.377155 
102*2068.377155 102*2065.094757 
102*2065.094757 102*2061.812360 
102*2061.812360 102*2058.529963 
102*2058.529963 102*2055.247566 
102*2055.247566 102*2051.965169 
102*2051.965169 102*2048.682772 
102*2048.682772 102*2045.400375 
102*2045.400375 102*2042.117978 
102*2042.117978 102*2038.835581 
102*2038.835581 102*2035.553184 
102*2035.553184 102*2032.270787 
102*2032.270787 102*2028.988390 
102*2028.988390 102*2025.705993 
102*2025.705993 102*2022.423596 
102*2022.423596 102*2019.141199 
102*2019.141199 102*2015.858801 
102*2015.858801 102*2012.576404 
102*2012.576404 102*2009.294007 
102*2009.294007 102*2006.011610 
102*2006.011610 102*2002.729213 
102*2002.729213 102*1999.446816 
102*1999.446816 102*1996.164419 
102*1996.164419 102*1992.882022 
102*1992.882022 102*1989.599625 
102*1989.599625 102*1986.317228 
102*1986.317228 102*1983.034831 
102*1983.034831 102*1979.752434 
102*1979.752434 102*1976.470037 
102*1976.470037 102*1973.187640 
102*1973.187640 102*1969.905243 
102*1969.905243 102*1966.622845 
102*1966.622845 102*1963.340448 
102*1963.340448 102*1960.058051 
102*1960.058051 102*1956.775654 
102*1956.775654 102*1953.493257 
102*1953.493257 102*1950.210860 
102*1950.210860 102*1946.928463 
102*1946.928463 102*1943.646066 
102*1943.646066 102*1940.363669 
102*1940.363669 102*1937.081272 
102*2106.983522 102*2103.701125 
102*2103.701125 102*2100.418728 
102*2100.418728 102*2097.136331 
102*2097.136331 102*2093.853934 
102*2093.853934 102*2090.571537 
102*2090.571537 102*2087.289140 
102*2087.289140 102*2084.006743 
102*2084.006743 102*2080.724346 
102*2080.724346 102*2077.441949 
102*2077.441949 102*2074.159552 
102*2074.159552 102*2070.877155 
102*2070.877155 102*2067.594757 
102*2067.594757 102*2064.312360 
102*2064.312360 102*2061.029963 
102*2061.029963 102*2057.747566 
102*2057.747566 102*2054.465169 
102*2054.465169 102*2051.182772 
102*2051.182772 102*2047.900375 
102*2047.900375 102*2044.617978 
102*2044.617978 102*2041.335581 
102*2041.335581 102*2038.053184 
102*2038.053184 102*2034.770787 
102*2034.770787 102*2031.488390 
102*2031.488390 102*2028.205993 
102*2028.205993 102*2024.923596 
102*2024.923596 102*2021.641199 
102*2021.641199 102*2018.358801 
102*2018.358801 102*2015.076404 
102*2015.076404 102*2011.794007 
102*2011.794007 102*2008.511610 
102*2008.511610 102*2005.229213 
102*2005.229213 102*2001.946816 
102*2001.946816 102*1998.664419 
102*1998.664419 102*1995.382022 
102*1995.382022 102*1992.099625 
102*1992.099625 102*1988.817228 
102*1988.817228 102*1985.534831 
102*1985.534831 102*1982.252434 
102*1982.252434 102*1978.970037 
102*1978.970037 102*1975.687640 
102*1975.687640 102*1972.405243 
102*1972.405243 102*1969.122845 
102*1969.122845 102*1965.840448 
102*1965.840448 102*1962.558051 
102*1962.558051 102*1959.275654 
102*1959.275654 102*1955.993257 
102*1955.993257 102*1952.710860 
102*1952.710860 102*1949.428463 
102*1949.428463 102*1946.146066 
102*1946.146066 102*1942.863669 
102*1942.863669 102*1939.581272 
102*2106.983522 102*2103.701125 
102*2103.701125 102*2100.418728 
102*2100.418728 102*2097.136331 
102*2097.136331 102*2093.853934 
102*2093.853934 102*2090.571537 
102*2090.571537 102*2087.289140 
102*2087.289140 102*2084.006743 
102*2084.006743 102*2080.724346 
102*2080.724346 102*2077.441949 
102*2077.441949 102*2074.159552 
102*2074.159552 102*2070.877155 
102*2070.877155 102*2067.594757 
102*2067.594757 102*2064.312360 
102*2064.312360 102*2061.029963 
102*2061.029963 102*2057.747566 
102*2057.747566 102*2054.465169 
102*2054.465169 102*2051.182772 
102*2051.182772 102*2047.900375 
102*2047.900375 102*2044.617978 
102*2044.617978 102*2041.335581 
102*2041.335581 102*2038.053184 
102*2038.053184 102*2034.770787 
102*2034.770787 102*2031.488390 
102*2031.488390 102*2028.205993 
102*2028.205993 102*2024.923596 
102*2024.923596 102*2021.641199 
102*2021.641199 102*2018.358801 
102*2018.358801 102*2015.076404 
102*2015.076404 102*2011.794007 
102*2011.794007 102*2008.511610 
102*2008.511610 102*2005.229213 
102*2005.229213 102*2001.946816 
102*2001.946816 102*1998.664419 
102*1998.664419 102*1995.382022 
102*1995.382022 102*1992.099625 
102*1992.099625 102*1988.817228 
102*1988.817228 102*1985.534831 
102*1985.534831 102*1982.252434 
102*1982.252434 102*1978.970037 
102*1978.970037 102*1975.687640 
102*1975.687640 102*1972.405243 
102*1972.405243 102*1969.122845 
102*1969.122845 102*1965.840448 
102*1965.840448 102*1962.558051 
102*1962.558051 102*1959.275654 
102*1959.275654 102*1955.993257 
102*1955.993257 102*1952.710860 
102*1952.710860 102*1949.428463 
102*1949.428463 102*1946.146066 
102*1946.146066 102*1942.863669 
102*1942.863669 102*1939.581272 
102*2109.483522 102*2106.201125 
102*2106.201125 102*2102.918728 
102*2102.918728 102*2099.636331 
102*2099.636331 102*2096.353934 
102*2096.353934 102*2093.071537 
102*2093.071537 102*2089.789140 
102*2089.789140 102*2086.506743 
102*2086.506743 102*2083.224346 
102*2083.224346 102*2079.941949 
102*2079.941949 102*2076.659552 
102*2076.659552 102*2073.377155 
102*2073.377155 102*2070.094757 
102*2070.094757 102*2066.812360 
102*2066.812360 102*2063.529963 
102*2063.529963 102*2060.247566 
102*2060.247566 102*2056.965169 
102*2056.965169 102*2053.682772 
102*2053.682772 102*2050.400375 
102*2050.400375 102*2047.117978 
102*2047.117978 102*2043.835581 
102*2043.835581 102*2040.553184 
102*2040.553184 102*2037.270787 
102*2037.270787 102*2033.988390 
102*2033.988390 102*2030.705993 
102*2030.705993 102*2027.423596 
102*2027.423596 102*2024.141199 
102*2024.141199 102*2020.858801 
102*2020.858801 102*2017.576404 
102*2017.576404 102*2014.294007 
102*2014.294007 102*2011.011610 
102*2011.011610 102*2007.729213 
102*2007.729213 102*2004.446816 
102*2004.446816 102*2001.164419 
102*2001.164419 102*1997.882022 
102*1997.882022 102*1994.599625 
102*1994.599625 102*1991.317228 
102*1991.317228 102*1988.034831 
102*1988.034831 102*1984.752434 
102*1984.752434 102*1981.470037 
102*1981.470037 102*1978.187640 
102*1978.187640 102*1974.905243 