ZCORN
102*2061.987944 102*2059.648776 
102*2059.648776 102*2057.309609 
102*2057.309609 102*2054.970441 
102*2054.970441 102*2052.631273 
102*2052.631273 102*2050.292106 
102*2050.292106 102*2047.952938 
102*2047.952938 102*2045.613770 
102*2045.613770 102*2043.274602 
102*2043.274602 102*2040.935435 
102*2040.935435 102*2038.596267 
102*2038.596267 102*2036.257099 
102*2036.257099 102*2033.917932 
102*2033.917932 102*2031.578764 
102*2031.578764 102*2029.239596 
102*2029.239596 102*2026.900429 
102*2026.900429 102*2024.561261 
102*2024.561261 102*2022.222093 
102*2022.222093 102*2019.882925 
102*2019.882925 102*2017.543758 
102*2017.543758 102*2015.204590 
102*2015.204590 102*2012.865422 
102*2012.865422 102*2010.526255 
102*2010.526255 102*2008.187087 
102*2008.187087 102*2005.847919 
102*2005.847919 102*2003.508752 
102*2003.508752 102*2001.169584 
102*2001.169584 102*1998.830416 
102*1998.830416 102*1996.491248 
102*1996.491248 102*1994.152081 
102*1994.152081 102*1991.812913 
102*1991.812913 102*1989.473745 
102*1989.473745 102*1987.134578 
102*1987.134578 102*1984.795410 
102*1984.795410 102*1982.456242 
102*1982.456242 102*1980.117075 
102*1980.117075 102*1977.777907 
102*1977.777907 102*1975.438739 
102*1975.438739 102*1973.099571 
102*1973.099571 102*1970.760404 
102*1970.760404 102*1968.421236 
102*1968.421236 102*1966.082068 
102*1966.082068 102*1963.742901 
102*1963.742901 102*1961.403733 
102*1961.403733 102*1959.064565 
102*1959.064565 102*1956.725398 
102*1956.725398 102*1954.386230 
102*1954.386230 102*1952.047062 
102*1952.047062 102*1949.707894 
102*1949.707894 102*1947.368727 
102*1947.368727 102*1945.029559 
102*1945.029559 102*1942.690391 
102*2064.487944 102*2062.148776 
102*2062.148776 102*2059.809609 
102*2059.809609 102*2057.470441 
102*2057.470441 102*2055.131273 
102*2055.131273 102*2052.792106 
102*2052.792106 102*2050.452938 
102*2050.452938 102*2048.113770 
102*2048.113770 102*2045.774602 
102*2045.774602 102*2043.435435 
102*2043.435435 102*2041.096267 
102*2041.096267 102*2038.757099 
102*2038.757099 102*2036.417932 
102*2036.417932 102*2034.078764 
102*2034.078764 102*2031.739596 
102*2031.739596 102*2029.400429 
102*2029.400429 102*2027.061261 
102*2027.061261 102*2024.722093 
102*2024.722093 102*2022.382925 
102*2022.382925 102*2020.043758 
102*2020.043758 102*2017.704590 
102*2017.704590 102*2015.365422 
102*2015.365422 102*2013.026255 
102*2013.026255 102*2010.687087 
102*2010.687087 102*2008.347919 
102*2008.347919 102*2006.008752 
102*2006.008752 102*2003.669584 
102*2003.669584 102*2001.330416 
102*2001.330416 102*1998.991248 
102*1998.991248 102*1996.652081 
102*1996.652081 102*1994.312913 
102*1994.312913 102*1991.973745 
102*1991.973745 102*1989.634578 
102*1989.634578 102*1987.295410 
102*1987.295410 102*1984.956242 
102*1984.956242 102*1982.617075 
102*1982.617075 102*1980.277907 
102*1980.277907 102*1977.938739 
102*1977.938739 102*1975.599571 
102*1975.599571 102*1973.260404 
102*1973.260404 102*1970.921236 
102*1970.921236 102*1968.582068 
102*1968.582068 102*1966.242901 
102*1966.242901 102*1963.903733 
102*1963.903733 102*1961.564565 
102*1961.564565 102*1959.225398 
102*1959.225398 102*1956.886230 
102*1956.886230 102*1954.547062 
102*1954.547062 102*1952.207894 
102*1952.207894 102*1949.868727 
102*1949.868727 102*1947.529559 
102*1947.529559 102*1945.190391 
102*2064.487944 102*2062.148776 
102*2062.148776 102*2059.809609 
102*2059.809609 102*2057.470441 
102*2057.470441 102*2055.131273 
102*2055.131273 102*2052.792106 
102*2052.792106 102*2050.452938 
102*2050.452938 102*2048.113770 
102*2048.113770 102*2045.774602 
102*2045.774602 102*2043.435435 
102*2043.435435 102*2041.096267 
102*2041.096267 102*2038.757099 
102*2038.757099 102*2036.417932 
102*2036.417932 102*2034.078764 
102*2034.078764 102*2031.739596 
102*2031.739596 102*2029.400429 
102*2029.400429 102*2027.061261 
102*2027.061261 102*2024.722093 
102*2024.722093 102*2022.382925 
102*2022.382925 102*2020.043758 
102*2020.043758 102*2017.704590 
102*2017.704590 102*2015.365422 
102*2015.365422 102*2013.026255 
102*2013.026255 102*2010.687087 
102*2010.687087 102*2008.347919 
102*2008.347919 102*2006.008752 
102*2006.008752 102*2003.669584 
102*2003.669584 102*2001.330416 
102*2001.330416 102*1998.991248 
102*1998.991248 102*1996.652081 
102*1996.652081 102*1994.312913 
102*1994.312913 102*1991.973745 
102*1991.973745 102*1989.634578 
102*1989.634578 102*1987.295410 
102*1987.295410 102*1984.956242 
102*1984.956242 102*1982.617075 
102*1982.617075 102*1980.277907 
102*1980.277907 102*1977.938739 
102*1977.938739 102*1975.599571 
102*1975.599571 102*1973.260404 
102*1973.260404 102*1970.921236 
102*1970.921236 102*1968.582068 
102*1968.582068 102*1966.242901 
102*1966.242901 102*1963.903733 
102*1963.903733 102*1961.564565 
102*1961.564565 102*1959.225398 
102*1959.225398 102*1956.886230 
102*1956.886230 102*1954.547062 
102*1954.547062 102*1952.207894 
102*1952.207894 102*1949.868727 
102*1949.868727 102*1947.529559 
102*1947.529559 102*1945.190391 
102*2066.987944 102*2064.648776 
102*2064.648776 102*2062.309609 
102*2062.309609 102*2059.970441 
102*2059.970441 102*2057.631273 
102*2057.631273 102*2055.292106 
102*2055.292106 102*2052.952938 
102*2052.952938 102*2050.613770 
102*2050.613770 102*2048.274602 
102*2048.274602 102*2045.935435 
102*2045.935435 102*2043.596267 
102*2043.596267 102*2041.257099 
102*2041.257099 102*2038.917932 
102*2038.917932 102*2036.578764 
102*2036.578764 102*2034.239596 
102*2034.239596 102*2031.900429 
102*2031.900429 102*2029.561261 
102*2029.561261 102*2027.222093 
102*2027.222093 102*2024.882925 
102*2024.882925 102*2022.543758 
102*2022.543758 102*2020.204590 
102*2020.204590 102*2017.865422 
102*2017.865422 102*2015.526255 
102*2015.526255 102*2013.187087 
102*2013.187087 102*2010.847919 
102*2010.847919 102*2008.508752 
102*2008.508752 102*2006.169584 
102*2006.169584 102*2003.830416 
102*2003.830416 102*2001.491248 
102*2001.491248 102*1999.152081 
102*1999.152081 102*1996.812913 
102*1996.812913 102*1994.473745 
102*1994.473745 102*1992.134578 
102*1992.134578 102*1989.795410 
102*1989.795410 102*1987.456242 
102*1987.456242 102*1985.117075 
102*1985.117075 102*1982.777907 
102*1982.777907 102*1980.438739 
102*1980.438739 102*1978.099571 
102*1978.099571 102*1975.760404 
102*1975.760404 102*1973.421236 
102*1973.421236 102*1971.082068 
102*1971.082068 102*1968.742901 
102*1968.742901 102*1966.403733 
102*1966.403733 102*1964.064565 
102*1964.064565 102*1961.725398 
102*1961.725398 102*1959.386230 
102*1959.386230 102*1957.047062 
102*1957.047062 102*1954.707894 
102*1954.707894 102*1952.368727 
102*1952.368727 102*1950.029559 
102*1950.029559 102*1947.690391 
102*2066.987944 102*2064.648776 
102*2064.648776 102*2062.309609 
102*2062.309609 102*2059.970441 
102*2059.970441 102*2057.631273 
102*2057.631273 102*2055.292106 
102*2055.292106 102*2052.952938 
102*2052.952938 102*2050.613770 
102*2050.613770 102*2048.274602 
102*2048.274602 102*2045.935435 
102*2045.935435 102*2043.596267 
102*2043.596267 102*2041.257099 
102*2041.257099 102*2038.917932 
102*2038.917932 102*2036.578764 
102*2036.578764 102*2034.239596 
102*2034.239596 102*2031.900429 
102*2031.900429 102*2029.561261 
102*2029.561261 102*2027.222093 
102*2027.222093 102*2024.882925 
102*2024.882925 102*2022.543758 
102*2022.543758 102*2020.204590 
102*2020.204590 102*2017.865422 
102*2017.865422 102*2015.526255 
102*2015.526255 102*2013.187087 
102*2013.187087 102*2010.847919 
102*2010.847919 102*2008.508752 
102*2008.508752 102*2006.169584 
102*2006.169584 102*2003.830416 
102*2003.830416 102*2001.491248 
102*2001.491248 102*1999.152081 
102*1999.152081 102*1996.812913 
102*1996.812913 102*1994.473745 
102*1994.473745 102*1992.134578 
102*1992.134578 102*1989.795410 
102*1989.795410 102*1987.456242 
102*1987.456242 102*1985.117075 
102*1985.117075 102*1982.777907 
102*1982.777907 102*1980.438739 
102*1980.438739 102*1978.099571 
102*1978.099571 102*1975.760404 
102*1975.760404 102*1973.421236 
102*1973.421236 102*1971.082068 
102*1971.082068 102*1968.742901 
102*1968.742901 102*1966.403733 
102*1966.403733 102*1964.064565 
102*1964.064565 102*1961.725398 
102*1961.725398 102*1959.386230 
102*1959.386230 102*1957.047062 
102*1957.047062 102*1954.707894 
102*1954.707894 102*1952.368727 
102*1952.368727 102*1950.029559 
102*1950.029559 102*1947.690391 
102*2069.487944 102*2067.148776 
102*2067.148776 102*2064.809609 
102*2064.809609 102*2062.470441 
102*2062.470441 102*2060.131273 
102*2060.131273 102*2057.792106 
102*2057.792106 102*2055.452938 
102*2055.452938 102*2053.113770 
102*2053.113770 102*2050.774602 
102*2050.774602 102*2048.435435 
102*2048.435435 102*2046.096267 
102*2046.096267 102*2043.757099 
102*2043.757099 102*2041.417932 
102*2041.417932 102*2039.078764 
102*2039.078764 102*2036.739596 
102*2036.739596 102*2034.400429 
102*2034.400429 102*2032.061261 
102*2032.061261 102*2029.722093 
102*2029.722093 102*2027.382925 
102*2027.382925 102*2025.043758 
102*2025.043758 102*2022.704590 
102*2022.704590 102*2020.365422 
102*2020.365422 102*2018.026255 
102*2018.026255 102*2015.687087 
102*2015.687087 102*2013.347919 
102*2013.347919 102*2011.008752 
102*2011.008752 102*2008.669584 
102*2008.669584 102*2006.330416 
102*2006.330416 102*2003.991248 
102*2003.991248 102*2001.652081 
102*2001.652081 102*1999.312913 
102*1999.312913 102*1996.973745 
102*1996.973745 102*1994.634578 
102*1994.634578 102*1992.295410 
102*1992.295410 102*1989.956242 
102*1989.956242 102*1987.617075 
102*1987.617075 102*1985.277907 
102*1985.277907 102*1982.938739 
102*1982.938739 102*1980.599571 
102*1980.599571 102*1978.260404 
102*1978.260404 102*1975.921236 
102*1975.921236 102*1973.582068 
102*1973.582068 102*1971.242901 
102*1971.242901 102*1968.903733 
102*1968.903733 102*1966.564565 
102*1966.564565 102*1964.225398 
102*1964.225398 102*1961.886230 
102*1961.886230 102*1959.547062 
102*1959.547062 102*1957.207894 
102*1957.207894 102*1954.868727 
102*1954.868727 102*1952.529559 
102*1952.529559 102*1950.190391 
102*2069.487944 102*2067.148776 
102*2067.148776 102*2064.809609 
102*2064.809609 102*2062.470441 
102*2062.470441 102*2060.131273 
102*2060.131273 102*2057.792106 
102*2057.792106 102*2055.452938 
102*2055.452938 102*2053.113770 
102*2053.113770 102*2050.774602 
102*2050.774602 102*2048.435435 
102*2048.435435 102*2046.096267 
102*2046.096267 102*2043.757099 
102*2043.757099 102*2041.417932 
102*2041.417932 102*2039.078764 
102*2039.078764 102*2036.739596 
102*2036.739596 102*2034.400429 
102*2034.400429 102*2032.061261 
102*2032.061261 102*2029.722093 
102*2029.722093 102*2027.382925 
102*2027.382925 102*2025.043758 
102*2025.043758 102*2022.704590 
102*2022.704590 102*2020.365422 
102*2020.365422 102*2018.026255 
102*2018.026255 102*2015.687087 
102*2015.687087 102*2013.347919 
102*2013.347919 102*2011.008752 
102*2011.008752 102*2008.669584 
102*2008.669584 102*2006.330416 
102*2006.330416 102*2003.991248 
102*2003.991248 102*2001.652081 
102*2001.652081 102*1999.312913 
102*1999.312913 102*1996.973745 
102*1996.973745 102*1994.634578 
102*1994.634578 102*1992.295410 
102*1992.295410 102*1989.956242 
102*1989.956242 102*1987.617075 
102*1987.617075 102*1985.277907 
102*1985.277907 102*1982.938739 
102*1982.938739 102*1980.599571 
102*1980.599571 102*1978.260404 
102*1978.260404 102*1975.921236 
102*1975.921236 102*1973.582068 
102*1973.582068 102*1971.242901 
102*1971.242901 102*1968.903733 
102*1968.903733 102*1966.564565 
102*1966.564565 102*1964.225398 
102*1964.225398 102*1961.886230 
102*1961.886230 102*1959.547062 
102*1959.547062 102*1957.207894 
102*1957.207894 102*1954.868727 
102*1954.868727 102*1952.529559 
102*1952.529559 102*1950.190391 
102*2071.987944 102*2069.648776 
102*2069.648776 102*2067.309609 
102*2067.309609 102*2064.970441 
102*2064.970441 102*2062.631273 
102*2062.631273 102*2060.292106 
102*2060.292106 102*2057.952938 
102*2057.952938 102*2055.613770 
102*2055.613770 102*2053.274602 
102*2053.274602 102*2050.935435 
102*2050.935435 102*2048.596267 
102*2048.596267 102*2046.257099 
102*2046.257099 102*2043.917932 
102*2043.917932 102*2041.578764 
102*2041.578764 102*2039.239596 
102*2039.239596 102*2036.900429 
102*2036.900429 102*2034.561261 
102*2034.561261 102*2032.222093 
102*2032.222093 102*2029.882925 
102*2029.882925 102*2027.543758 
102*2027.543758 102*2025.204590 
102*2025.204590 102*2022.865422 
102*2022.865422 102*2020.526255 
102*2020.526255 102*2018.187087 
102*2018.187087 102*2015.847919 
102*2015.847919 102*2013.508752 
102*2013.508752 102*2011.169584 
102*2011.169584 102*2008.830416 
102*2008.830416 102*2006.491248 
102*2006.491248 102*2004.152081 
102*2004.152081 102*2001.812913 
102*2001.812913 102*1999.473745 
102*1999.473745 102*1997.134578 
102*1997.134578 102*1994.795410 
102*1994.795410 102*1992.456242 
102*1992.456242 102*1990.117075 
102*1990.117075 102*1987.777907 
102*1987.777907 102*1985.438739 
102*1985.438739 102*1983.099571 
102*1983.099571 102*1980.760404 
102*1980.760404 102*1978.421236 
102*1978.421236 102*1976.082068 
102*1976.082068 102*1973.742901 
102*1973.742901 102*1971.403733 
102*1971.403733 102*1969.064565 
102*1969.064565 102*1966.725398 
102*1966.725398 102*1964.386230 
102*1964.386230 102*1962.047062 
102*1962.047062 102*1959.707894 
102*1959.707894 102*1957.368727 
102*1957.368727 102*1955.029559 
102*1955.029559 102*1952.690391 
102*2071.987944 102*2069.648776 
102*2069.648776 102*2067.309609 
102*2067.309609 102*2064.970441 
102*2064.970441 102*2062.631273 
102*2062.631273 102*2060.292106 
102*2060.292106 102*2057.952938 
102*2057.952938 102*2055.613770 
102*2055.613770 102*2053.274602 
102*2053.274602 102*2050.935435 
102*2050.935435 102*2048.596267 
102*2048.596267 102*2046.257099 
102*2046.257099 102*2043.917932 
102*2043.917932 102*2041.578764 
102*2041.578764 102*2039.239596 
102*2039.239596 102*2036.900429 
102*2036.900429 102*2034.561261 
102*2034.561261 102*2032.222093 
102*2032.222093 102*2029.882925 
102*2029.882925 102*2027.543758 
102*2027.543758 102*2025.204590 
102*2025.204590 102*2022.865422 
102*2022.865422 102*2020.526255 
102*2020.526255 102*2018.187087 
102*2018.187087 102*2015.847919 
102*2015.847919 102*2013.508752 
102*2013.508752 102*2011.169584 
102*2011.169584 102*2008.830416 
102*2008.830416 102*2006.491248 
102*2006.491248 102*2004.152081 
102*2004.152081 102*2001.812913 
102*2001.812913 102*1999.473745 
102*1999.473745 102*1997.134578 
102*1997.134578 102*1994.795410 
102*1994.795410 102*1992.456242 
102*1992.456242 102*1990.117075 
102*1990.117075 102*1987.777907 
102*1987.777907 102*1985.438739 
102*1985.438739 102*1983.099571 
102*1983.099571 102*1980.760404 
102*1980.760404 102*1978.421236 
102*1978.421236 102*1976.082068 
102*1976.082068 102*1973.742901 
102*1973.742901 102*1971.403733 
102*1971.403733 102*1969.064565 
102*1969.064565 102*1966.725398 
102*1966.725398 102*1964.386230 
102*1964.386230 102*1962.047062 
102*1962.047062 102*1959.707894 
102*1959.707894 102*1957.368727 
102*1957.368727 102*1955.029559 
102*1955.029559 102*1952.690391 
102*2074.487944 102*2072.148776 
102*2072.148776 102*2069.809609 
102*2069.809609 102*2067.470441 
102*2067.470441 102*2065.131273 
102*2065.131273 102*2062.792106 
102*2062.792106 102*2060.452938 
102*2060.452938 102*2058.113770 
102*2058.113770 102*2055.774602 
102*2055.774602 102*2053.435435 
102*2053.435435 102*2051.096267 
102*2051.096267 102*2048.757099 
102*2048.757099 102*2046.417932 
102*2046.417932 102*2044.078764 
102*2044.078764 102*2041.739596 
102*2041.739596 102*2039.400429 
102*2039.400429 102*2037.061261 
102*2037.061261 102*2034.722093 
102*2034.722093 102*2032.382925 
102*2032.382925 102*2030.043758 
102*2030.043758 102*2027.704590 
102*2027.704590 102*2025.365422 
102*2025.365422 102*2023.026255 
102*2023.026255 102*2020.687087 
102*2020.687087 102*2018.347919 
102*2018.347919 102*2016.008752 
102*2016.008752 102*2013.669584 
102*2013.669584 102*2011.330416 
102*2011.330416 102*2008.991248 
102*2008.991248 102*2006.652081 
102*2006.652081 102*2004.312913 
102*2004.312913 102*2001.973745 
102*2001.973745 102*1999.634578 
102*1999.634578 102*1997.295410 
102*1997.295410 102*1994.956242 
102*1994.956242 102*1992.617075 
102*1992.617075 102*1990.277907 
102*1990.277907 102*1987.938739 
102*1987.938739 102*1985.599571 
102*1985.599571 102*1983.260404 
102*1983.260404 102*1980.921236 
102*1980.921236 102*1978.582068 
102*1978.582068 102*1976.242901 
102*1976.242901 102*1973.903733 
102*1973.903733 102*1971.564565 
102*1971.564565 102*1969.225398 
102*1969.225398 102*1966.886230 
102*1966.886230 102*1964.547062 
102*1964.547062 102*1962.207894 
102*1962.207894 102*1959.868727 
102*1959.868727 102*1957.529559 
102*1957.529559 102*1955.190391 
102*2074.487944 102*2072.148776 
102*2072.148776 102*2069.809609 
102*2069.809609 102*2067.470441 
102*2067.470441 102*2065.131273 
102*2065.131273 102*2062.792106 
102*2062.792106 102*2060.452938 
102*2060.452938 102*2058.113770 
102*2058.113770 102*2055.774602 
102*2055.774602 102*2053.435435 
102*2053.435435 102*2051.096267 
102*2051.096267 102*2048.757099 
102*2048.757099 102*2046.417932 
102*2046.417932 102*2044.078764 
102*2044.078764 102*2041.739596 
102*2041.739596 102*2039.400429 
102*2039.400429 102*2037.061261 
102*2037.061261 102*2034.722093 
102*2034.722093 102*2032.382925 
102*2032.382925 102*2030.043758 
102*2030.043758 102*2027.704590 
102*2027.704590 102*2025.365422 
102*2025.365422 102*2023.026255 
102*2023.026255 102*2020.687087 
102*2020.687087 102*2018.347919 
102*2018.347919 102*2016.008752 
102*2016.008752 102*2013.669584 
102*2013.669584 102*2011.330416 
102*2011.330416 102*2008.991248 
102*2008.991248 102*2006.652081 
102*2006.652081 102*2004.312913 
102*2004.312913 102*2001.973745 
102*2001.973745 102*1999.634578 
102*1999.634578 102*1997.295410 
102*1997.295410 102*1994.956242 
102*1994.956242 102*1992.617075 
102*1992.617075 102*1990.277907 
102*1990.277907 102*1987.938739 
102*1987.938739 102*1985.599571 
102*1985.599571 102*1983.260404 
102*1983.260404 102*1980.921236 
102*1980.921236 102*1978.582068 
102*1978.582068 102*1976.242901 
102*1976.242901 102*1973.903733 
102*1973.903733 102*1971.564565 
102*1971.564565 102*1969.225398 
102*1969.225398 102*1966.886230 
102*1966.886230 102*1964.547062 
102*1964.547062 102*1962.207894 
102*1962.207894 102*1959.868727 
102*1959.868727 102*1957.529559 
102*1957.529559 102*1955.190391 
102*2076.987944 102*2074.648776 
102*2074.648776 102*2072.309609 
102*2072.309609 102*2069.970441 
102*2069.970441 102*2067.631273 
102*2067.631273 102*2065.292106 
102*2065.292106 102*2062.952938 
102*2062.952938 102*2060.613770 
102*2060.613770 102*2058.274602 
102*2058.274602 102*2055.935435 
102*2055.935435 102*2053.596267 
102*2053.596267 102*2051.257099 
102*2051.257099 102*2048.917932 
102*2048.917932 102*2046.578764 
102*2046.578764 102*2044.239596 
102*2044.239596 102*2041.900429 
102*2041.900429 102*2039.561261 
102*2039.561261 102*2037.222093 
102*2037.222093 102*2034.882925 
102*2034.882925 102*2032.543758 
102*2032.543758 102*2030.204590 
102*2030.204590 102*2027.865422 
102*2027.865422 102*2025.526255 
102*2025.526255 102*2023.187087 
102*2023.187087 102*2020.847919 
102*2020.847919 102*2018.508752 
102*2018.508752 102*2016.169584 
102*2016.169584 102*2013.830416 
102*2013.830416 102*2011.491248 
102*2011.491248 102*2009.152081 
102*2009.152081 102*2006.812913 
102*2006.812913 102*2004.473745 
102*2004.473745 102*2002.134578 
102*2002.134578 102*1999.795410 
102*1999.795410 102*1997.456242 
102*1997.456242 102*1995.117075 
102*1995.117075 102*1992.777907 
102*1992.777907 102*1990.438739 
102*1990.438739 102*1988.099571 
102*1988.099571 102*1985.760404 
102*1985.760404 102*1983.421236 
102*1983.421236 102*1981.082068 
102*1981.082068 102*1978.742901 
102*1978.742901 102*1976.403733 
102*1976.403733 102*1974.064565 
102*1974.064565 102*1971.725398 
102*1971.725398 102*1969.386230 
102*1969.386230 102*1967.047062 
102*1967.047062 102*1964.707894 
102*1964.707894 102*1962.368727 
102*1962.368727 102*1960.029559 
102*1960.029559 102*1957.690391 
102*2076.987944 102*2074.648776 
102*2074.648776 102*2072.309609 
102*2072.309609 102*2069.970441 
102*2069.970441 102*2067.631273 
102*2067.631273 102*2065.292106 
102*2065.292106 102*2062.952938 
102*2062.952938 102*2060.613770 
102*2060.613770 102*2058.274602 
102*2058.274602 102*2055.935435 
102*2055.935435 102*2053.596267 
102*2053.596267 102*2051.257099 
102*2051.257099 102*2048.917932 
102*2048.917932 102*2046.578764 
102*2046.578764 102*2044.239596 
102*2044.239596 102*2041.900429 
102*2041.900429 102*2039.561261 
102*2039.561261 102*2037.222093 
102*2037.222093 102*2034.882925 
102*2034.882925 102*2032.543758 
102*2032.543758 102*2030.204590 
102*2030.204590 102*2027.865422 
102*2027.865422 102*2025.526255 
102*2025.526255 102*2023.187087 
102*2023.187087 102*2020.847919 
102*2020.847919 102*2018.508752 
102*2018.508752 102*2016.169584 
102*2016.169584 102*2013.830416 
102*2013.830416 102*2011.491248 
102*2011.491248 102*2009.152081 
102*2009.152081 102*2006.812913 
102*2006.812913 102*2004.473745 
102*2004.473745 102*2002.134578 
102*2002.134578 102*1999.795410 
102*1999.795410 102*1997.456242 
102*1997.456242 102*1995.117075 
102*1995.117075 102*1992.777907 
102*1992.777907 102*1990.438739 
102*1990.438739 102*1988.099571 
102*1988.099571 102*1985.760404 
102*1985.760404 102*1983.421236 
102*1983.421236 102*1981.082068 
102*1981.082068 102*1978.742901 
102*1978.742901 102*1976.403733 
102*1976.403733 102*1974.064565 
102*1974.064565 102*1971.725398 
102*1971.725398 102*1969.386230 
102*1969.386230 102*1967.047062 
102*1967.047062 102*1964.707894 
102*1964.707894 102*1962.368727 
102*1962.368727 102*1960.029559 
102*1960.029559 102*1957.690391 
102*2079.487944 102*2077.148776 
102*2077.148776 102*2074.809609 
102*2074.809609 102*2072.470441 
102*2072.470441 102*2070.131273 
102*2070.131273 102*2067.792106 
102*2067.792106 102*2065.452938 
102*2065.452938 102*2063.113770 
102*2063.113770 102*2060.774602 
102*2060.774602 102*2058.435435 
102*2058.435435 102*2056.096267 
102*2056.096267 102*2053.757099 
102*2053.757099 102*2051.417932 
102*2051.417932 102*2049.078764 
102*2049.078764 102*2046.739596 
102*2046.739596 102*2044.400429 
102*2044.400429 102*2042.061261 
102*2042.061261 102*2039.722093 
102*2039.722093 102*2037.382925 
102*2037.382925 102*2035.043758 
102*2035.043758 102*2032.704590 
102*2032.704590 102*2030.365422 
102*2030.365422 102*2028.026255 
102*2028.026255 102*2025.687087 
102*2025.687087 102*2023.347919 
102*2023.347919 102*2021.008752 
102*2021.008752 102*2018.669584 
102*2018.669584 102*2016.330416 
102*2016.330416 102*2013.991248 
102*2013.991248 102*2011.652081 
102*2011.652081 102*2009.312913 
102*2009.312913 102*2006.973745 
102*2006.973745 102*2004.634578 
102*2004.634578 102*2002.295410 
102*2002.295410 102*1999.956242 
102*1999.956242 102*1997.617075 
102*1997.617075 102*1995.277907 
102*1995.277907 102*1992.938739 
102*1992.938739 102*1990.599571 
102*1990.599571 102*1988.260404 
102*1988.260404 102*1985.921236 
102*1985.921236 102*1983.582068 
102*1983.582068 102*1981.242901 
102*1981.242901 102*1978.903733 
102*1978.903733 102*1976.564565 
102*1976.564565 102*1974.225398 
102*1974.225398 102*1971.886230 
102*1971.886230 102*1969.547062 
102*1969.547062 102*1967.207894 
102*1967.207894 102*1964.868727 
102*1964.868727 102*1962.529559 
102*1962.529559 102*1960.190391 
102*2079.487944 102*2077.148776 
102*2077.148776 102*2074.809609 
102*2074.809609 102*2072.470441 
102*2072.470441 102*2070.131273 
102*2070.131273 102*2067.792106 
102*2067.792106 102*2065.452938 
102*2065.452938 102*2063.113770 
102*2063.113770 102*2060.774602 
102*2060.774602 102*2058.435435 
102*2058.435435 102*2056.096267 
102*2056.096267 102*2053.757099 
102*2053.757099 102*2051.417932 
102*2051.417932 102*2049.078764 
102*2049.078764 102*2046.739596 
102*2046.739596 102*2044.400429 
102*2044.400429 102*2042.061261 
102*2042.061261 102*2039.722093 
102*2039.722093 102*2037.382925 
102*2037.382925 102*2035.043758 
102*2035.043758 102*2032.704590 
102*2032.704590 102*2030.365422 
102*2030.365422 102*2028.026255 
102*2028.026255 102*2025.687087 
102*2025.687087 102*2023.347919 
102*2023.347919 102*2021.008752 
102*2021.008752 102*2018.669584 
102*2018.669584 102*2016.330416 
102*2016.330416 102*2013.991248 
102*2013.991248 102*2011.652081 
102*2011.652081 102*2009.312913 
102*2009.312913 102*2006.973745 
102*2006.973745 102*2004.634578 
102*2004.634578 102*2002.295410 
102*2002.295410 102*1999.956242 
102*1999.956242 102*1997.617075 
102*1997.617075 102*1995.277907 
102*1995.277907 102*1992.938739 
102*1992.938739 102*1990.599571 
102*1990.599571 102*1988.260404 
102*1988.260404 102*1985.921236 
102*1985.921236 102*1983.582068 
102*1983.582068 102*1981.242901 
102*1981.242901 102*1978.903733 
102*1978.903733 102*1976.564565 
102*1976.564565 102*1974.225398 
102*1974.225398 102*1971.886230 
102*1971.886230 102*1969.547062 
102*1969.547062 102*1967.207894 
102*1967.207894 102*1964.868727 
102*1964.868727 102*1962.529559 
102*1962.529559 102*1960.190391 
102*2081.987944 102*2079.648776 
102*2079.648776 102*2077.309609 
102*2077.309609 102*2074.970441 
102*2074.970441 102*2072.631273 
102*2072.631273 102*2070.292106 
102*2070.292106 102*2067.952938 
102*2067.952938 102*2065.613770 
102*2065.613770 102*2063.274602 
102*2063.274602 102*2060.935435 
102*2060.935435 102*2058.596267 
102*2058.596267 102*2056.257099 
102*2056.257099 102*2053.917932 
102*2053.917932 102*2051.578764 
102*2051.578764 102*2049.239596 
102*2049.239596 102*2046.900429 
102*2046.900429 102*2044.561261 
102*2044.561261 102*2042.222093 
102*2042.222093 102*2039.882925 
102*2039.882925 102*2037.543758 
102*2037.543758 102*2035.204590 
102*2035.204590 102*2032.865422 
102*2032.865422 102*2030.526255 
102*2030.526255 102*2028.187087 
102*2028.187087 102*2025.847919 
102*2025.847919 102*2023.508752 
102*2023.508752 102*2021.169584 
102*2021.169584 102*2018.830416 
102*2018.830416 102*2016.491248 
102*2016.491248 102*2014.152081 
102*2014.152081 102*2011.812913 
102*2011.812913 102*2009.473745 
102*2009.473745 102*2007.134578 
102*2007.134578 102*2004.795410 
102*2004.795410 102*2002.456242 
102*2002.456242 102*2000.117075 
102*2000.117075 102*1997.777907 
102*1997.777907 102*1995.438739 
102*1995.438739 102*1993.099571 
102*1993.099571 102*1990.760404 
102*1990.760404 102*1988.421236 
102*1988.421236 102*1986.082068 
102*1986.082068 102*1983.742901 
102*1983.742901 102*1981.403733 
102*1981.403733 102*1979.064565 
102*1979.064565 102*1976.725398 
102*1976.725398 102*1974.386230 
102*1974.386230 102*1972.047062 
102*1972.047062 102*1969.707894 
102*1969.707894 102*1967.368727 
102*1967.368727 102*1965.029559 
102*1965.029559 102*1962.690391 
102*2081.987944 102*2079.648776 
102*2079.648776 102*2077.309609 
102*2077.309609 102*2074.970441 
102*2074.970441 102*2072.631273 
102*2072.631273 102*2070.292106 
102*2070.292106 102*2067.952938 
102*2067.952938 102*2065.613770 
102*2065.613770 102*2063.274602 
102*2063.274602 102*2060.935435 
102*2060.935435 102*2058.596267 
102*2058.596267 102*2056.257099 
102*2056.257099 102*2053.917932 
102*2053.917932 102*2051.578764 
102*2051.578764 102*2049.239596 
102*2049.239596 102*2046.900429 
102*2046.900429 102*2044.561261 
102*2044.561261 102*2042.222093 
102*2042.222093 102*2039.882925 
102*2039.882925 102*2037.543758 
102*2037.543758 102*2035.204590 
102*2035.204590 102*2032.865422 
102*2032.865422 102*2030.526255 
102*2030.526255 102*2028.187087 
102*2028.187087 102*2025.847919 
102*2025.847919 102*2023.508752 
102*2023.508752 102*2021.169584 
102*2021.169584 102*2018.830416 
102*2018.830416 102*2016.491248 
102*2016.491248 102*2014.152081 
102*2014.152081 102*2011.812913 
102*2011.812913 102*2009.473745 
102*2009.473745 102*2007.134578 
102*2007.134578 102*2004.795410 
102*2004.795410 102*2002.456242 
102*2002.456242 102*2000.117075 
102*2000.117075 102*1997.777907 
102*1997.777907 102*1995.438739 
102*1995.438739 102*1993.099571 
102*1993.099571 102*1990.760404 
102*1990.760404 102*1988.421236 
102*1988.421236 102*1986.082068 
102*1986.082068 102*1983.742901 
102*1983.742901 102*1981.403733 
102*1981.403733 102*1979.064565 
102*1979.064565 102*1976.725398 
102*1976.725398 102*1974.386230 
102*1974.386230 102*1972.047062 
102*1972.047062 102*1969.707894 
102*1969.707894 102*1967.368727 
102*1967.368727 102*1965.029559 
102*1965.029559 102*1962.690391 
102*2084.487944 102*2082.148776 
102*2082.148776 102*2079.809609 
102*2079.809609 102*2077.470441 
102*2077.470441 102*2075.131273 
102*2075.131273 102*2072.792106 
102*2072.792106 102*2070.452938 
102*2070.452938 102*2068.113770 
102*2068.113770 102*2065.774602 
102*2065.774602 102*2063.435435 
102*2063.435435 102*2061.096267 
102*2061.096267 102*2058.757099 
102*2058.757099 102*2056.417932 
102*2056.417932 102*2054.078764 
102*2054.078764 102*2051.739596 
102*2051.739596 102*2049.400429 
102*2049.400429 102*2047.061261 
102*2047.061261 102*2044.722093 
102*2044.722093 102*2042.382925 
102*2042.382925 102*2040.043758 
102*2040.043758 102*2037.704590 
102*2037.704590 102*2035.365422 
102*2035.365422 102*2033.026255 
102*2033.026255 102*2030.687087 
102*2030.687087 102*2028.347919 
102*2028.347919 102*2026.008752 
102*2026.008752 102*2023.669584 
102*2023.669584 102*2021.330416 
102*2021.330416 102*2018.991248 
102*2018.991248 102*2016.652081 
102*2016.652081 102*2014.312913 
102*2014.312913 102*2011.973745 
102*2011.973745 102*2009.634578 
102*2009.634578 102*2007.295410 
102*2007.295410 102*2004.956242 
102*2004.956242 102*2002.617075 
102*2002.617075 102*2000.277907 
102*2000.277907 102*1997.938739 
102*1997.938739 102*1995.599571 
102*1995.599571 102*1993.260404 
102*1993.260404 102*1990.921236 
102*1990.921236 102*1988.582068 