ZCORN
102*2012.950446 102*2012.461750 
102*2012.461750 102*2011.973054 
102*2011.973054 102*2011.484358 
102*2011.484358 102*2010.995662 
102*2010.995662 102*2010.506966 
102*2010.506966 102*2010.018270 
102*2010.018270 102*2009.529574 
102*2009.529574 102*2009.040877 
102*2009.040877 102*2008.552181 
102*2008.552181 102*2008.063485 
102*2008.063485 102*2007.574789 
102*2007.574789 102*2007.086093 
102*2007.086093 102*2006.597397 
102*2006.597397 102*2006.108701 
102*2006.108701 102*2005.620005 
102*2005.620005 102*2005.131309 
102*2005.131309 102*2004.642613 
102*2004.642613 102*2004.153917 
102*2004.153917 102*2003.665221 
102*2003.665221 102*2003.176525 
102*2003.176525 102*2002.687828 
102*2002.687828 102*2002.199132 
102*2002.199132 102*2001.710436 
102*2001.710436 102*2001.221740 
102*2001.221740 102*2000.733044 
102*2000.733044 102*2000.244348 
102*2000.244348 102*1999.755652 
102*1999.755652 102*1999.266956 
102*1999.266956 102*1998.778260 
102*1998.778260 102*1998.289564 
102*1998.289564 102*1997.800868 
102*1997.800868 102*1997.312172 
102*1997.312172 102*1996.823475 
102*1996.823475 102*1996.334779 
102*1996.334779 102*1995.846083 
102*1995.846083 102*1995.357387 
102*1995.357387 102*1994.868691 
102*1994.868691 102*1994.379995 
102*1994.379995 102*1993.891299 
102*1993.891299 102*1993.402603 
102*1993.402603 102*1992.913907 
102*1992.913907 102*1992.425211 
102*1992.425211 102*1991.936515 
102*1991.936515 102*1991.447819 
102*1991.447819 102*1990.959123 
102*1990.959123 102*1990.470426 
102*1990.470426 102*1989.981730 
102*1989.981730 102*1989.493034 
102*1989.493034 102*1989.004338 
102*1989.004338 102*1988.515642 
102*1988.515642 102*1988.026946 
102*2015.450446 102*2014.961750 
102*2014.961750 102*2014.473054 
102*2014.473054 102*2013.984358 
102*2013.984358 102*2013.495662 
102*2013.495662 102*2013.006966 
102*2013.006966 102*2012.518270 
102*2012.518270 102*2012.029574 
102*2012.029574 102*2011.540877 
102*2011.540877 102*2011.052181 
102*2011.052181 102*2010.563485 
102*2010.563485 102*2010.074789 
102*2010.074789 102*2009.586093 
102*2009.586093 102*2009.097397 
102*2009.097397 102*2008.608701 
102*2008.608701 102*2008.120005 
102*2008.120005 102*2007.631309 
102*2007.631309 102*2007.142613 
102*2007.142613 102*2006.653917 
102*2006.653917 102*2006.165221 
102*2006.165221 102*2005.676525 
102*2005.676525 102*2005.187828 
102*2005.187828 102*2004.699132 
102*2004.699132 102*2004.210436 
102*2004.210436 102*2003.721740 
102*2003.721740 102*2003.233044 
102*2003.233044 102*2002.744348 
102*2002.744348 102*2002.255652 
102*2002.255652 102*2001.766956 
102*2001.766956 102*2001.278260 
102*2001.278260 102*2000.789564 
102*2000.789564 102*2000.300868 
102*2000.300868 102*1999.812172 
102*1999.812172 102*1999.323475 
102*1999.323475 102*1998.834779 
102*1998.834779 102*1998.346083 
102*1998.346083 102*1997.857387 
102*1997.857387 102*1997.368691 
102*1997.368691 102*1996.879995 
102*1996.879995 102*1996.391299 
102*1996.391299 102*1995.902603 
102*1995.902603 102*1995.413907 
102*1995.413907 102*1994.925211 
102*1994.925211 102*1994.436515 
102*1994.436515 102*1993.947819 
102*1993.947819 102*1993.459123 
102*1993.459123 102*1992.970426 
102*1992.970426 102*1992.481730 
102*1992.481730 102*1991.993034 
102*1991.993034 102*1991.504338 
102*1991.504338 102*1991.015642 
102*1991.015642 102*1990.526946 
102*2015.450446 102*2014.961750 
102*2014.961750 102*2014.473054 
102*2014.473054 102*2013.984358 
102*2013.984358 102*2013.495662 
102*2013.495662 102*2013.006966 
102*2013.006966 102*2012.518270 
102*2012.518270 102*2012.029574 
102*2012.029574 102*2011.540877 
102*2011.540877 102*2011.052181 
102*2011.052181 102*2010.563485 
102*2010.563485 102*2010.074789 
102*2010.074789 102*2009.586093 
102*2009.586093 102*2009.097397 
102*2009.097397 102*2008.608701 
102*2008.608701 102*2008.120005 
102*2008.120005 102*2007.631309 
102*2007.631309 102*2007.142613 
102*2007.142613 102*2006.653917 
102*2006.653917 102*2006.165221 
102*2006.165221 102*2005.676525 
102*2005.676525 102*2005.187828 
102*2005.187828 102*2004.699132 
102*2004.699132 102*2004.210436 
102*2004.210436 102*2003.721740 
102*2003.721740 102*2003.233044 
102*2003.233044 102*2002.744348 
102*2002.744348 102*2002.255652 
102*2002.255652 102*2001.766956 
102*2001.766956 102*2001.278260 
102*2001.278260 102*2000.789564 
102*2000.789564 102*2000.300868 
102*2000.300868 102*1999.812172 
102*1999.812172 102*1999.323475 
102*1999.323475 102*1998.834779 
102*1998.834779 102*1998.346083 
102*1998.346083 102*1997.857387 
102*1997.857387 102*1997.368691 
102*1997.368691 102*1996.879995 
102*1996.879995 102*1996.391299 
102*1996.391299 102*1995.902603 
102*1995.902603 102*1995.413907 
102*1995.413907 102*1994.925211 
102*1994.925211 102*1994.436515 
102*1994.436515 102*1993.947819 
102*1993.947819 102*1993.459123 
102*1993.459123 102*1992.970426 
102*1992.970426 102*1992.481730 
102*1992.481730 102*1991.993034 
102*1991.993034 102*1991.504338 
102*1991.504338 102*1991.015642 
102*1991.015642 102*1990.526946 
102*2017.950446 102*2017.461750 
102*2017.461750 102*2016.973054 
102*2016.973054 102*2016.484358 
102*2016.484358 102*2015.995662 
102*2015.995662 102*2015.506966 
102*2015.506966 102*2015.018270 
102*2015.018270 102*2014.529574 
102*2014.529574 102*2014.040877 
102*2014.040877 102*2013.552181 
102*2013.552181 102*2013.063485 
102*2013.063485 102*2012.574789 
102*2012.574789 102*2012.086093 
102*2012.086093 102*2011.597397 
102*2011.597397 102*2011.108701 
102*2011.108701 102*2010.620005 
102*2010.620005 102*2010.131309 
102*2010.131309 102*2009.642613 
102*2009.642613 102*2009.153917 
102*2009.153917 102*2008.665221 
102*2008.665221 102*2008.176525 
102*2008.176525 102*2007.687828 
102*2007.687828 102*2007.199132 
102*2007.199132 102*2006.710436 
102*2006.710436 102*2006.221740 
102*2006.221740 102*2005.733044 
102*2005.733044 102*2005.244348 
102*2005.244348 102*2004.755652 
102*2004.755652 102*2004.266956 
102*2004.266956 102*2003.778260 
102*2003.778260 102*2003.289564 
102*2003.289564 102*2002.800868 
102*2002.800868 102*2002.312172 
102*2002.312172 102*2001.823475 
102*2001.823475 102*2001.334779 
102*2001.334779 102*2000.846083 
102*2000.846083 102*2000.357387 
102*2000.357387 102*1999.868691 
102*1999.868691 102*1999.379995 
102*1999.379995 102*1998.891299 
102*1998.891299 102*1998.402603 
102*1998.402603 102*1997.913907 
102*1997.913907 102*1997.425211 
102*1997.425211 102*1996.936515 
102*1996.936515 102*1996.447819 
102*1996.447819 102*1995.959123 
102*1995.959123 102*1995.470426 
102*1995.470426 102*1994.981730 
102*1994.981730 102*1994.493034 
102*1994.493034 102*1994.004338 
102*1994.004338 102*1993.515642 
102*1993.515642 102*1993.026946 
102*2017.950446 102*2017.461750 
102*2017.461750 102*2016.973054 
102*2016.973054 102*2016.484358 
102*2016.484358 102*2015.995662 
102*2015.995662 102*2015.506966 
102*2015.506966 102*2015.018270 
102*2015.018270 102*2014.529574 
102*2014.529574 102*2014.040877 
102*2014.040877 102*2013.552181 
102*2013.552181 102*2013.063485 
102*2013.063485 102*2012.574789 
102*2012.574789 102*2012.086093 
102*2012.086093 102*2011.597397 
102*2011.597397 102*2011.108701 
102*2011.108701 102*2010.620005 
102*2010.620005 102*2010.131309 
102*2010.131309 102*2009.642613 
102*2009.642613 102*2009.153917 
102*2009.153917 102*2008.665221 
102*2008.665221 102*2008.176525 
102*2008.176525 102*2007.687828 
102*2007.687828 102*2007.199132 
102*2007.199132 102*2006.710436 
102*2006.710436 102*2006.221740 
102*2006.221740 102*2005.733044 
102*2005.733044 102*2005.244348 
102*2005.244348 102*2004.755652 
102*2004.755652 102*2004.266956 
102*2004.266956 102*2003.778260 
102*2003.778260 102*2003.289564 
102*2003.289564 102*2002.800868 
102*2002.800868 102*2002.312172 
102*2002.312172 102*2001.823475 
102*2001.823475 102*2001.334779 
102*2001.334779 102*2000.846083 
102*2000.846083 102*2000.357387 
102*2000.357387 102*1999.868691 
102*1999.868691 102*1999.379995 
102*1999.379995 102*1998.891299 
102*1998.891299 102*1998.402603 
102*1998.402603 102*1997.913907 
102*1997.913907 102*1997.425211 
102*1997.425211 102*1996.936515 
102*1996.936515 102*1996.447819 
102*1996.447819 102*1995.959123 
102*1995.959123 102*1995.470426 
102*1995.470426 102*1994.981730 
102*1994.981730 102*1994.493034 
102*1994.493034 102*1994.004338 
102*1994.004338 102*1993.515642 
102*1993.515642 102*1993.026946 
102*2020.450446 102*2019.961750 
102*2019.961750 102*2019.473054 
102*2019.473054 102*2018.984358 
102*2018.984358 102*2018.495662 
102*2018.495662 102*2018.006966 
102*2018.006966 102*2017.518270 
102*2017.518270 102*2017.029574 
102*2017.029574 102*2016.540877 
102*2016.540877 102*2016.052181 
102*2016.052181 102*2015.563485 
102*2015.563485 102*2015.074789 
102*2015.074789 102*2014.586093 
102*2014.586093 102*2014.097397 
102*2014.097397 102*2013.608701 
102*2013.608701 102*2013.120005 
102*2013.120005 102*2012.631309 
102*2012.631309 102*2012.142613 
102*2012.142613 102*2011.653917 
102*2011.653917 102*2011.165221 
102*2011.165221 102*2010.676525 
102*2010.676525 102*2010.187828 
102*2010.187828 102*2009.699132 
102*2009.699132 102*2009.210436 
102*2009.210436 102*2008.721740 
102*2008.721740 102*2008.233044 
102*2008.233044 102*2007.744348 
102*2007.744348 102*2007.255652 
102*2007.255652 102*2006.766956 
102*2006.766956 102*2006.278260 
102*2006.278260 102*2005.789564 
102*2005.789564 102*2005.300868 
102*2005.300868 102*2004.812172 
102*2004.812172 102*2004.323475 
102*2004.323475 102*2003.834779 
102*2003.834779 102*2003.346083 
102*2003.346083 102*2002.857387 
102*2002.857387 102*2002.368691 
102*2002.368691 102*2001.879995 
102*2001.879995 102*2001.391299 
102*2001.391299 102*2000.902603 
102*2000.902603 102*2000.413907 
102*2000.413907 102*1999.925211 
102*1999.925211 102*1999.436515 
102*1999.436515 102*1998.947819 
102*1998.947819 102*1998.459123 
102*1998.459123 102*1997.970426 
102*1997.970426 102*1997.481730 
102*1997.481730 102*1996.993034 
102*1996.993034 102*1996.504338 
102*1996.504338 102*1996.015642 
102*1996.015642 102*1995.526946 
102*2020.450446 102*2019.961750 
102*2019.961750 102*2019.473054 
102*2019.473054 102*2018.984358 
102*2018.984358 102*2018.495662 
102*2018.495662 102*2018.006966 
102*2018.006966 102*2017.518270 
102*2017.518270 102*2017.029574 
102*2017.029574 102*2016.540877 
102*2016.540877 102*2016.052181 
102*2016.052181 102*2015.563485 
102*2015.563485 102*2015.074789 
102*2015.074789 102*2014.586093 
102*2014.586093 102*2014.097397 
102*2014.097397 102*2013.608701 
102*2013.608701 102*2013.120005 
102*2013.120005 102*2012.631309 
102*2012.631309 102*2012.142613 
102*2012.142613 102*2011.653917 
102*2011.653917 102*2011.165221 
102*2011.165221 102*2010.676525 
102*2010.676525 102*2010.187828 
102*2010.187828 102*2009.699132 
102*2009.699132 102*2009.210436 
102*2009.210436 102*2008.721740 
102*2008.721740 102*2008.233044 
102*2008.233044 102*2007.744348 
102*2007.744348 102*2007.255652 
102*2007.255652 102*2006.766956 
102*2006.766956 102*2006.278260 
102*2006.278260 102*2005.789564 
102*2005.789564 102*2005.300868 
102*2005.300868 102*2004.812172 
102*2004.812172 102*2004.323475 
102*2004.323475 102*2003.834779 
102*2003.834779 102*2003.346083 
102*2003.346083 102*2002.857387 
102*2002.857387 102*2002.368691 
102*2002.368691 102*2001.879995 
102*2001.879995 102*2001.391299 
102*2001.391299 102*2000.902603 
102*2000.902603 102*2000.413907 
102*2000.413907 102*1999.925211 
102*1999.925211 102*1999.436515 
102*1999.436515 102*1998.947819 
102*1998.947819 102*1998.459123 
102*1998.459123 102*1997.970426 
102*1997.970426 102*1997.481730 
102*1997.481730 102*1996.993034 
102*1996.993034 102*1996.504338 
102*1996.504338 102*1996.015642 
102*1996.015642 102*1995.526946 
102*2022.950446 102*2022.461750 
102*2022.461750 102*2021.973054 
102*2021.973054 102*2021.484358 
102*2021.484358 102*2020.995662 
102*2020.995662 102*2020.506966 
102*2020.506966 102*2020.018270 
102*2020.018270 102*2019.529574 
102*2019.529574 102*2019.040877 
102*2019.040877 102*2018.552181 
102*2018.552181 102*2018.063485 
102*2018.063485 102*2017.574789 
102*2017.574789 102*2017.086093 
102*2017.086093 102*2016.597397 
102*2016.597397 102*2016.108701 
102*2016.108701 102*2015.620005 
102*2015.620005 102*2015.131309 
102*2015.131309 102*2014.642613 
102*2014.642613 102*2014.153917 
102*2014.153917 102*2013.665221 
102*2013.665221 102*2013.176525 
102*2013.176525 102*2012.687828 
102*2012.687828 102*2012.199132 
102*2012.199132 102*2011.710436 
102*2011.710436 102*2011.221740 
102*2011.221740 102*2010.733044 
102*2010.733044 102*2010.244348 
102*2010.244348 102*2009.755652 
102*2009.755652 102*2009.266956 
102*2009.266956 102*2008.778260 
102*2008.778260 102*2008.289564 
102*2008.289564 102*2007.800868 
102*2007.800868 102*2007.312172 
102*2007.312172 102*2006.823475 
102*2006.823475 102*2006.334779 
102*2006.334779 102*2005.846083 
102*2005.846083 102*2005.357387 
102*2005.357387 102*2004.868691 
102*2004.868691 102*2004.379995 
102*2004.379995 102*2003.891299 
102*2003.891299 102*2003.402603 
102*2003.402603 102*2002.913907 
102*2002.913907 102*2002.425211 
102*2002.425211 102*2001.936515 
102*2001.936515 102*2001.447819 
102*2001.447819 102*2000.959123 
102*2000.959123 102*2000.470426 
102*2000.470426 102*1999.981730 
102*1999.981730 102*1999.493034 
102*1999.493034 102*1999.004338 
102*1999.004338 102*1998.515642 
102*1998.515642 102*1998.026946 
102*2022.950446 102*2022.461750 
102*2022.461750 102*2021.973054 
102*2021.973054 102*2021.484358 
102*2021.484358 102*2020.995662 
102*2020.995662 102*2020.506966 
102*2020.506966 102*2020.018270 
102*2020.018270 102*2019.529574 
102*2019.529574 102*2019.040877 
102*2019.040877 102*2018.552181 
102*2018.552181 102*2018.063485 
102*2018.063485 102*2017.574789 
102*2017.574789 102*2017.086093 
102*2017.086093 102*2016.597397 
102*2016.597397 102*2016.108701 
102*2016.108701 102*2015.620005 
102*2015.620005 102*2015.131309 
102*2015.131309 102*2014.642613 
102*2014.642613 102*2014.153917 
102*2014.153917 102*2013.665221 
102*2013.665221 102*2013.176525 
102*2013.176525 102*2012.687828 
102*2012.687828 102*2012.199132 
102*2012.199132 102*2011.710436 
102*2011.710436 102*2011.221740 
102*2011.221740 102*2010.733044 
102*2010.733044 102*2010.244348 
102*2010.244348 102*2009.755652 
102*2009.755652 102*2009.266956 
102*2009.266956 102*2008.778260 
102*2008.778260 102*2008.289564 
102*2008.289564 102*2007.800868 
102*2007.800868 102*2007.312172 
102*2007.312172 102*2006.823475 
102*2006.823475 102*2006.334779 
102*2006.334779 102*2005.846083 
102*2005.846083 102*2005.357387 
102*2005.357387 102*2004.868691 
102*2004.868691 102*2004.379995 
102*2004.379995 102*2003.891299 
102*2003.891299 102*2003.402603 
102*2003.402603 102*2002.913907 
102*2002.913907 102*2002.425211 
102*2002.425211 102*2001.936515 
102*2001.936515 102*2001.447819 
102*2001.447819 102*2000.959123 
102*2000.959123 102*2000.470426 
102*2000.470426 102*1999.981730 
102*1999.981730 102*1999.493034 
102*1999.493034 102*1999.004338 
102*1999.004338 102*1998.515642 
102*1998.515642 102*1998.026946 
102*2025.450446 102*2024.961750 
102*2024.961750 102*2024.473054 
102*2024.473054 102*2023.984358 
102*2023.984358 102*2023.495662 
102*2023.495662 102*2023.006966 
102*2023.006966 102*2022.518270 
102*2022.518270 102*2022.029574 
102*2022.029574 102*2021.540877 
102*2021.540877 102*2021.052181 
102*2021.052181 102*2020.563485 
102*2020.563485 102*2020.074789 
102*2020.074789 102*2019.586093 
102*2019.586093 102*2019.097397 
102*2019.097397 102*2018.608701 
102*2018.608701 102*2018.120005 
102*2018.120005 102*2017.631309 
102*2017.631309 102*2017.142613 
102*2017.142613 102*2016.653917 
102*2016.653917 102*2016.165221 
102*2016.165221 102*2015.676525 
102*2015.676525 102*2015.187828 
102*2015.187828 102*2014.699132 
102*2014.699132 102*2014.210436 
102*2014.210436 102*2013.721740 
102*2013.721740 102*2013.233044 
102*2013.233044 102*2012.744348 
102*2012.744348 102*2012.255652 
102*2012.255652 102*2011.766956 
102*2011.766956 102*2011.278260 
102*2011.278260 102*2010.789564 
102*2010.789564 102*2010.300868 
102*2010.300868 102*2009.812172 
102*2009.812172 102*2009.323475 
102*2009.323475 102*2008.834779 
102*2008.834779 102*2008.346083 
102*2008.346083 102*2007.857387 
102*2007.857387 102*2007.368691 
102*2007.368691 102*2006.879995 
102*2006.879995 102*2006.391299 
102*2006.391299 102*2005.902603 
102*2005.902603 102*2005.413907 
102*2005.413907 102*2004.925211 
102*2004.925211 102*2004.436515 
102*2004.436515 102*2003.947819 
102*2003.947819 102*2003.459123 
102*2003.459123 102*2002.970426 
102*2002.970426 102*2002.481730 
102*2002.481730 102*2001.993034 
102*2001.993034 102*2001.504338 
102*2001.504338 102*2001.015642 
102*2001.015642 102*2000.526946 
102*2025.450446 102*2024.961750 
102*2024.961750 102*2024.473054 
102*2024.473054 102*2023.984358 
102*2023.984358 102*2023.495662 
102*2023.495662 102*2023.006966 
102*2023.006966 102*2022.518270 
102*2022.518270 102*2022.029574 
102*2022.029574 102*2021.540877 
102*2021.540877 102*2021.052181 
102*2021.052181 102*2020.563485 
102*2020.563485 102*2020.074789 
102*2020.074789 102*2019.586093 
102*2019.586093 102*2019.097397 
102*2019.097397 102*2018.608701 
102*2018.608701 102*2018.120005 
102*2018.120005 102*2017.631309 
102*2017.631309 102*2017.142613 
102*2017.142613 102*2016.653917 
102*2016.653917 102*2016.165221 
102*2016.165221 102*2015.676525 
102*2015.676525 102*2015.187828 
102*2015.187828 102*2014.699132 
102*2014.699132 102*2014.210436 
102*2014.210436 102*2013.721740 
102*2013.721740 102*2013.233044 
102*2013.233044 102*2012.744348 
102*2012.744348 102*2012.255652 
102*2012.255652 102*2011.766956 
102*2011.766956 102*2011.278260 
102*2011.278260 102*2010.789564 
102*2010.789564 102*2010.300868 
102*2010.300868 102*2009.812172 
102*2009.812172 102*2009.323475 
102*2009.323475 102*2008.834779 
102*2008.834779 102*2008.346083 
102*2008.346083 102*2007.857387 
102*2007.857387 102*2007.368691 
102*2007.368691 102*2006.879995 
102*2006.879995 102*2006.391299 
102*2006.391299 102*2005.902603 
102*2005.902603 102*2005.413907 
102*2005.413907 102*2004.925211 
102*2004.925211 102*2004.436515 
102*2004.436515 102*2003.947819 
102*2003.947819 102*2003.459123 
102*2003.459123 102*2002.970426 
102*2002.970426 102*2002.481730 
102*2002.481730 102*2001.993034 
102*2001.993034 102*2001.504338 
102*2001.504338 102*2001.015642 
102*2001.015642 102*2000.526946 
102*2027.950446 102*2027.461750 
102*2027.461750 102*2026.973054 
102*2026.973054 102*2026.484358 
102*2026.484358 102*2025.995662 
102*2025.995662 102*2025.506966 
102*2025.506966 102*2025.018270 
102*2025.018270 102*2024.529574 
102*2024.529574 102*2024.040877 
102*2024.040877 102*2023.552181 
102*2023.552181 102*2023.063485 
102*2023.063485 102*2022.574789 
102*2022.574789 102*2022.086093 
102*2022.086093 102*2021.597397 
102*2021.597397 102*2021.108701 
102*2021.108701 102*2020.620005 
102*2020.620005 102*2020.131309 
102*2020.131309 102*2019.642613 
102*2019.642613 102*2019.153917 
102*2019.153917 102*2018.665221 
102*2018.665221 102*2018.176525 
102*2018.176525 102*2017.687828 
102*2017.687828 102*2017.199132 
102*2017.199132 102*2016.710436 
102*2016.710436 102*2016.221740 
102*2016.221740 102*2015.733044 
102*2015.733044 102*2015.244348 
102*2015.244348 102*2014.755652 
102*2014.755652 102*2014.266956 
102*2014.266956 102*2013.778260 
102*2013.778260 102*2013.289564 
102*2013.289564 102*2012.800868 
102*2012.800868 102*2012.312172 
102*2012.312172 102*2011.823475 
102*2011.823475 102*2011.334779 
102*2011.334779 102*2010.846083 
102*2010.846083 102*2010.357387 
102*2010.357387 102*2009.868691 
102*2009.868691 102*2009.379995 
102*2009.379995 102*2008.891299 
102*2008.891299 102*2008.402603 
102*2008.402603 102*2007.913907 
102*2007.913907 102*2007.425211 
102*2007.425211 102*2006.936515 
102*2006.936515 102*2006.447819 
102*2006.447819 102*2005.959123 
102*2005.959123 102*2005.470426 
102*2005.470426 102*2004.981730 
102*2004.981730 102*2004.493034 
102*2004.493034 102*2004.004338 
102*2004.004338 102*2003.515642 
102*2003.515642 102*2003.026946 
102*2027.950446 102*2027.461750 
102*2027.461750 102*2026.973054 
102*2026.973054 102*2026.484358 
102*2026.484358 102*2025.995662 
102*2025.995662 102*2025.506966 
102*2025.506966 102*2025.018270 
102*2025.018270 102*2024.529574 
102*2024.529574 102*2024.040877 
102*2024.040877 102*2023.552181 
102*2023.552181 102*2023.063485 
102*2023.063485 102*2022.574789 
102*2022.574789 102*2022.086093 
102*2022.086093 102*2021.597397 
102*2021.597397 102*2021.108701 
102*2021.108701 102*2020.620005 
102*2020.620005 102*2020.131309 
102*2020.131309 102*2019.642613 
102*2019.642613 102*2019.153917 
102*2019.153917 102*2018.665221 
102*2018.665221 102*2018.176525 
102*2018.176525 102*2017.687828 
102*2017.687828 102*2017.199132 
102*2017.199132 102*2016.710436 
102*2016.710436 102*2016.221740 
102*2016.221740 102*2015.733044 
102*2015.733044 102*2015.244348 
102*2015.244348 102*2014.755652 
102*2014.755652 102*2014.266956 
102*2014.266956 102*2013.778260 
102*2013.778260 102*2013.289564 
102*2013.289564 102*2012.800868 
102*2012.800868 102*2012.312172 
102*2012.312172 102*2011.823475 
102*2011.823475 102*2011.334779 
102*2011.334779 102*2010.846083 
102*2010.846083 102*2010.357387 
102*2010.357387 102*2009.868691 
102*2009.868691 102*2009.379995 
102*2009.379995 102*2008.891299 
102*2008.891299 102*2008.402603 
102*2008.402603 102*2007.913907 
102*2007.913907 102*2007.425211 
102*2007.425211 102*2006.936515 
102*2006.936515 102*2006.447819 
102*2006.447819 102*2005.959123 
102*2005.959123 102*2005.470426 
102*2005.470426 102*2004.981730 
102*2004.981730 102*2004.493034 
102*2004.493034 102*2004.004338 
102*2004.004338 102*2003.515642 
102*2003.515642 102*2003.026946 
102*2030.450446 102*2029.961750 
102*2029.961750 102*2029.473054 
102*2029.473054 102*2028.984358 
102*2028.984358 102*2028.495662 
102*2028.495662 102*2028.006966 
102*2028.006966 102*2027.518270 
102*2027.518270 102*2027.029574 
102*2027.029574 102*2026.540877 
102*2026.540877 102*2026.052181 
102*2026.052181 102*2025.563485 
102*2025.563485 102*2025.074789 
102*2025.074789 102*2024.586093 
102*2024.586093 102*2024.097397 
102*2024.097397 102*2023.608701 
102*2023.608701 102*2023.120005 
102*2023.120005 102*2022.631309 
102*2022.631309 102*2022.142613 
102*2022.142613 102*2021.653917 
102*2021.653917 102*2021.165221 
102*2021.165221 102*2020.676525 
102*2020.676525 102*2020.187828 
102*2020.187828 102*2019.699132 
102*2019.699132 102*2019.210436 
102*2019.210436 102*2018.721740 
102*2018.721740 102*2018.233044 
102*2018.233044 102*2017.744348 
102*2017.744348 102*2017.255652 
102*2017.255652 102*2016.766956 
102*2016.766956 102*2016.278260 
102*2016.278260 102*2015.789564 
102*2015.789564 102*2015.300868 
102*2015.300868 102*2014.812172 
102*2014.812172 102*2014.323475 
102*2014.323475 102*2013.834779 
102*2013.834779 102*2013.346083 
102*2013.346083 102*2012.857387 
102*2012.857387 102*2012.368691 
102*2012.368691 102*2011.879995 
102*2011.879995 102*2011.391299 
102*2011.391299 102*2010.902603 
102*2010.902603 102*2010.413907 
102*2010.413907 102*2009.925211 
102*2009.925211 102*2009.436515 
102*2009.436515 102*2008.947819 
102*2008.947819 102*2008.459123 
102*2008.459123 102*2007.970426 
102*2007.970426 102*2007.481730 
102*2007.481730 102*2006.993034 
102*2006.993034 102*2006.504338 
102*2006.504338 102*2006.015642 
102*2006.015642 102*2005.526946 
102*2030.450446 102*2029.961750 
102*2029.961750 102*2029.473054 
102*2029.473054 102*2028.984358 
102*2028.984358 102*2028.495662 
102*2028.495662 102*2028.006966 
102*2028.006966 102*2027.518270 
102*2027.518270 102*2027.029574 
102*2027.029574 102*2026.540877 
102*2026.540877 102*2026.052181 
102*2026.052181 102*2025.563485 
102*2025.563485 102*2025.074789 
102*2025.074789 102*2024.586093 
102*2024.586093 102*2024.097397 
102*2024.097397 102*2023.608701 
102*2023.608701 102*2023.120005 
102*2023.120005 102*2022.631309 
102*2022.631309 102*2022.142613 
102*2022.142613 102*2021.653917 
102*2021.653917 102*2021.165221 
102*2021.165221 102*2020.676525 
102*2020.676525 102*2020.187828 
102*2020.187828 102*2019.699132 
102*2019.699132 102*2019.210436 
102*2019.210436 102*2018.721740 
102*2018.721740 102*2018.233044 
102*2018.233044 102*2017.744348 
102*2017.744348 102*2017.255652 
102*2017.255652 102*2016.766956 
102*2016.766956 102*2016.278260 
102*2016.278260 102*2015.789564 
102*2015.789564 102*2015.300868 
102*2015.300868 102*2014.812172 
102*2014.812172 102*2014.323475 
102*2014.323475 102*2013.834779 
102*2013.834779 102*2013.346083 
102*2013.346083 102*2012.857387 
102*2012.857387 102*2012.368691 
102*2012.368691 102*2011.879995 
102*2011.879995 102*2011.391299 
102*2011.391299 102*2010.902603 
102*2010.902603 102*2010.413907 
102*2010.413907 102*2009.925211 
102*2009.925211 102*2009.436515 
102*2009.436515 102*2008.947819 
102*2008.947819 102*2008.459123 
102*2008.459123 102*2007.970426 
102*2007.970426 102*2007.481730 
102*2007.481730 102*2006.993034 
102*2006.993034 102*2006.504338 
102*2006.504338 102*2006.015642 
102*2006.015642 102*2005.526946 
102*2032.950446 102*2032.461750 
102*2032.461750 102*2031.973054 
102*2031.973054 102*2031.484358 
102*2031.484358 102*2030.995662 
102*2030.995662 102*2030.506966 
102*2030.506966 102*2030.018270 
102*2030.018270 102*2029.529574 
102*2029.529574 102*2029.040877 
102*2029.040877 102*2028.552181 
102*2028.552181 102*2028.063485 
102*2028.063485 102*2027.574789 
102*2027.574789 102*2027.086093 
102*2027.086093 102*2026.597397 
102*2026.597397 102*2026.108701 
102*2026.108701 102*2025.620005 
102*2025.620005 102*2025.131309 
102*2025.131309 102*2024.642613 
102*2024.642613 102*2024.153917 
102*2024.153917 102*2023.665221 
102*2023.665221 102*2023.176525 
102*2023.176525 102*2022.687828 
102*2022.687828 102*2022.199132 
102*2022.199132 102*2021.710436 
102*2021.710436 102*2021.221740 
102*2021.221740 102*2020.733044 
102*2020.733044 102*2020.244348 
102*2020.244348 102*2019.755652 
102*2019.755652 102*2019.266956 
102*2019.266956 102*2018.778260 
102*2018.778260 102*2018.289564 
102*2018.289564 102*2017.800868 
102*2017.800868 102*2017.312172 
102*2017.312172 102*2016.823475 
102*2016.823475 102*2016.334779 
102*2016.334779 102*2015.846083 
102*2015.846083 102*2015.357387 
102*2015.357387 102*2014.868691 
102*2014.868691 102*2014.379995 
102*2014.379995 102*2013.891299 
102*2013.891299 102*2013.402603 
102*2013.402603 102*2012.913907 
102*2012.913907 102*2012.425211 
102*2012.425211 102*2011.936515 
102*2011.936515 102*2011.447819 
102*2011.447819 102*2010.959123 
102*2010.959123 102*2010.470426 
102*2010.470426 102*2009.981730 
102*2009.981730 102*2009.493034 
102*2009.493034 102*2009.004338 
102*2009.004338 102*2008.515642 
102*2008.515642 102*2008.026946 
102*2032.950446 102*2032.461750 
102*2032.461750 102*2031.973054 
102*2031.973054 102*2031.484358 
102*2031.484358 102*2030.995662 
102*2030.995662 102*2030.506966 
102*2030.506966 102*2030.018270 
102*2030.018270 102*2029.529574 
102*2029.529574 102*2029.040877 
102*2029.040877 102*2028.552181 
102*2028.552181 102*2028.063485 
102*2028.063485 102*2027.574789 
102*2027.574789 102*2027.086093 
102*2027.086093 102*2026.597397 
102*2026.597397 102*2026.108701 
102*2026.108701 102*2025.620005 
102*2025.620005 102*2025.131309 
102*2025.131309 102*2024.642613 
102*2024.642613 102*2024.153917 
102*2024.153917 102*2023.665221 
102*2023.665221 102*2023.176525 
102*2023.176525 102*2022.687828 
102*2022.687828 102*2022.199132 
102*2022.199132 102*2021.710436 
102*2021.710436 102*2021.221740 
102*2021.221740 102*2020.733044 
102*2020.733044 102*2020.244348 
102*2020.244348 102*2019.755652 
102*2019.755652 102*2019.266956 
102*2019.266956 102*2018.778260 
102*2018.778260 102*2018.289564 
102*2018.289564 102*2017.800868 
102*2017.800868 102*2017.312172 
102*2017.312172 102*2016.823475 
102*2016.823475 102*2016.334779 
102*2016.334779 102*2015.846083 
102*2015.846083 102*2015.357387 
102*2015.357387 102*2014.868691 
102*2014.868691 102*2014.379995 
102*2014.379995 102*2013.891299 
102*2013.891299 102*2013.402603 
102*2013.402603 102*2012.913907 
102*2012.913907 102*2012.425211 
102*2012.425211 102*2011.936515 
102*2011.936515 102*2011.447819 
102*2011.447819 102*2010.959123 
102*2010.959123 102*2010.470426 
102*2010.470426 102*2009.981730 
102*2009.981730 102*2009.493034 
102*2009.493034 102*2009.004338 
102*2009.004338 102*2008.515642 
102*2008.515642 102*2008.026946 
102*2035.450446 102*2034.961750 
102*2034.961750 102*2034.473054 
102*2034.473054 102*2033.984358 
102*2033.984358 102*2033.495662 
102*2033.495662 102*2033.006966 
102*2033.006966 102*2032.518270 
102*2032.518270 102*2032.029574 
102*2032.029574 102*2031.540877 
102*2031.540877 102*2031.052181 
102*2031.052181 102*2030.563485 
102*2030.563485 102*2030.074789 
102*2030.074789 102*2029.586093 
102*2029.586093 102*2029.097397 
102*2029.097397 102*2028.608701 
102*2028.608701 102*2028.120005 
102*2028.120005 102*2027.631309 
102*2027.631309 102*2027.142613 
102*2027.142613 102*2026.653917 
102*2026.653917 102*2026.165221 
102*2026.165221 102*2025.676525 
102*2025.676525 102*2025.187828 
102*2025.187828 102*2024.699132 
102*2024.699132 102*2024.210436 
102*2024.210436 102*2023.721740 
102*2023.721740 102*2023.233044 
102*2023.233044 102*2022.744348 
102*2022.744348 102*2022.255652 
102*2022.255652 102*2021.766956 
102*2021.766956 102*2021.278260 
102*2021.278260 102*2020.789564 
102*2020.789564 102*2020.300868 
102*2020.300868 102*2019.812172 
102*2019.812172 102*2019.323475 
102*2019.323475 102*2018.834779 
102*2018.834779 102*2018.346083 
102*2018.346083 102*2017.857387 
102*2017.857387 102*2017.368691 
102*2017.368691 102*2016.879995 
102*2016.879995 102*2016.391299 
102*2016.391299 102*2015.902603 
102*2015.902603 102*2015.413907 