ZCORN
102*2026.364068 102*2025.369198 
102*2025.369198 102*2024.374327 
102*2024.374327 102*2023.379457 
102*2023.379457 102*2022.384586 
102*2022.384586 102*2021.389716 
102*2021.389716 102*2020.394845 
102*2020.394845 102*2019.399975 
102*2019.399975 102*2018.405104 
102*2018.405104 102*2017.410234 
102*2017.410234 102*2016.415363 
102*2016.415363 102*2015.420493 
102*2015.420493 102*2014.425622 
102*2014.425622 102*2013.430752 
102*2013.430752 102*2012.435881 
102*2012.435881 102*2011.441011 
102*2011.441011 102*2010.446140 
102*2010.446140 102*2009.451270 
102*2009.451270 102*2008.456399 
102*2008.456399 102*2007.461529 
102*2007.461529 102*2006.466658 
102*2006.466658 102*2005.471788 
102*2005.471788 102*2004.476917 
102*2004.476917 102*2003.482047 
102*2003.482047 102*2002.487176 
102*2002.487176 102*2001.492306 
102*2001.492306 102*2000.497435 
102*2000.497435 102*1999.502565 
102*1999.502565 102*1998.507694 
102*1998.507694 102*1997.512824 
102*1997.512824 102*1996.517953 
102*1996.517953 102*1995.523083 
102*1995.523083 102*1994.528212 
102*1994.528212 102*1993.533342 
102*1993.533342 102*1992.538471 
102*1992.538471 102*1991.543601 
102*1991.543601 102*1990.548730 
102*1990.548730 102*1989.553860 
102*1989.553860 102*1988.558989 
102*1988.558989 102*1987.564119 
102*1987.564119 102*1986.569248 
102*1986.569248 102*1985.574378 
102*1985.574378 102*1984.579507 
102*1984.579507 102*1983.584637 
102*1983.584637 102*1982.589766 
102*1982.589766 102*1981.594896 
102*1981.594896 102*1980.600025 
102*1980.600025 102*1979.605155 
102*1979.605155 102*1978.610284 
102*1978.610284 102*1977.615414 
102*1977.615414 102*1976.620543 
102*1976.620543 102*1975.625673 
102*2028.864068 102*2027.869198 
102*2027.869198 102*2026.874327 
102*2026.874327 102*2025.879457 
102*2025.879457 102*2024.884586 
102*2024.884586 102*2023.889716 
102*2023.889716 102*2022.894845 
102*2022.894845 102*2021.899975 
102*2021.899975 102*2020.905104 
102*2020.905104 102*2019.910234 
102*2019.910234 102*2018.915363 
102*2018.915363 102*2017.920493 
102*2017.920493 102*2016.925622 
102*2016.925622 102*2015.930752 
102*2015.930752 102*2014.935881 
102*2014.935881 102*2013.941011 
102*2013.941011 102*2012.946140 
102*2012.946140 102*2011.951270 
102*2011.951270 102*2010.956399 
102*2010.956399 102*2009.961529 
102*2009.961529 102*2008.966658 
102*2008.966658 102*2007.971788 
102*2007.971788 102*2006.976917 
102*2006.976917 102*2005.982047 
102*2005.982047 102*2004.987176 
102*2004.987176 102*2003.992306 
102*2003.992306 102*2002.997435 
102*2002.997435 102*2002.002565 
102*2002.002565 102*2001.007694 
102*2001.007694 102*2000.012824 
102*2000.012824 102*1999.017953 
102*1999.017953 102*1998.023083 
102*1998.023083 102*1997.028212 
102*1997.028212 102*1996.033342 
102*1996.033342 102*1995.038471 
102*1995.038471 102*1994.043601 
102*1994.043601 102*1993.048730 
102*1993.048730 102*1992.053860 
102*1992.053860 102*1991.058989 
102*1991.058989 102*1990.064119 
102*1990.064119 102*1989.069248 
102*1989.069248 102*1988.074378 
102*1988.074378 102*1987.079507 
102*1987.079507 102*1986.084637 
102*1986.084637 102*1985.089766 
102*1985.089766 102*1984.094896 
102*1984.094896 102*1983.100025 
102*1983.100025 102*1982.105155 
102*1982.105155 102*1981.110284 
102*1981.110284 102*1980.115414 
102*1980.115414 102*1979.120543 
102*1979.120543 102*1978.125673 
102*2028.864068 102*2027.869198 
102*2027.869198 102*2026.874327 
102*2026.874327 102*2025.879457 
102*2025.879457 102*2024.884586 
102*2024.884586 102*2023.889716 
102*2023.889716 102*2022.894845 
102*2022.894845 102*2021.899975 
102*2021.899975 102*2020.905104 
102*2020.905104 102*2019.910234 
102*2019.910234 102*2018.915363 
102*2018.915363 102*2017.920493 
102*2017.920493 102*2016.925622 
102*2016.925622 102*2015.930752 
102*2015.930752 102*2014.935881 
102*2014.935881 102*2013.941011 
102*2013.941011 102*2012.946140 
102*2012.946140 102*2011.951270 
102*2011.951270 102*2010.956399 
102*2010.956399 102*2009.961529 
102*2009.961529 102*2008.966658 
102*2008.966658 102*2007.971788 
102*2007.971788 102*2006.976917 
102*2006.976917 102*2005.982047 
102*2005.982047 102*2004.987176 
102*2004.987176 102*2003.992306 
102*2003.992306 102*2002.997435 
102*2002.997435 102*2002.002565 
102*2002.002565 102*2001.007694 
102*2001.007694 102*2000.012824 
102*2000.012824 102*1999.017953 
102*1999.017953 102*1998.023083 
102*1998.023083 102*1997.028212 
102*1997.028212 102*1996.033342 
102*1996.033342 102*1995.038471 
102*1995.038471 102*1994.043601 
102*1994.043601 102*1993.048730 
102*1993.048730 102*1992.053860 
102*1992.053860 102*1991.058989 
102*1991.058989 102*1990.064119 
102*1990.064119 102*1989.069248 
102*1989.069248 102*1988.074378 
102*1988.074378 102*1987.079507 
102*1987.079507 102*1986.084637 
102*1986.084637 102*1985.089766 
102*1985.089766 102*1984.094896 
102*1984.094896 102*1983.100025 
102*1983.100025 102*1982.105155 
102*1982.105155 102*1981.110284 
102*1981.110284 102*1980.115414 
102*1980.115414 102*1979.120543 
102*1979.120543 102*1978.125673 
102*2031.364068 102*2030.369198 
102*2030.369198 102*2029.374327 
102*2029.374327 102*2028.379457 
102*2028.379457 102*2027.384586 
102*2027.384586 102*2026.389716 
102*2026.389716 102*2025.394845 
102*2025.394845 102*2024.399975 
102*2024.399975 102*2023.405104 
102*2023.405104 102*2022.410234 
102*2022.410234 102*2021.415363 
102*2021.415363 102*2020.420493 
102*2020.420493 102*2019.425622 
102*2019.425622 102*2018.430752 
102*2018.430752 102*2017.435881 
102*2017.435881 102*2016.441011 
102*2016.441011 102*2015.446140 
102*2015.446140 102*2014.451270 
102*2014.451270 102*2013.456399 
102*2013.456399 102*2012.461529 
102*2012.461529 102*2011.466658 
102*2011.466658 102*2010.471788 
102*2010.471788 102*2009.476917 
102*2009.476917 102*2008.482047 
102*2008.482047 102*2007.487176 
102*2007.487176 102*2006.492306 
102*2006.492306 102*2005.497435 
102*2005.497435 102*2004.502565 
102*2004.502565 102*2003.507694 
102*2003.507694 102*2002.512824 
102*2002.512824 102*2001.517953 
102*2001.517953 102*2000.523083 
102*2000.523083 102*1999.528212 
102*1999.528212 102*1998.533342 
102*1998.533342 102*1997.538471 
102*1997.538471 102*1996.543601 
102*1996.543601 102*1995.548730 
102*1995.548730 102*1994.553860 
102*1994.553860 102*1993.558989 
102*1993.558989 102*1992.564119 
102*1992.564119 102*1991.569248 
102*1991.569248 102*1990.574378 
102*1990.574378 102*1989.579507 
102*1989.579507 102*1988.584637 
102*1988.584637 102*1987.589766 
102*1987.589766 102*1986.594896 
102*1986.594896 102*1985.600025 
102*1985.600025 102*1984.605155 
102*1984.605155 102*1983.610284 
102*1983.610284 102*1982.615414 
102*1982.615414 102*1981.620543 
102*1981.620543 102*1980.625673 
102*2031.364068 102*2030.369198 
102*2030.369198 102*2029.374327 
102*2029.374327 102*2028.379457 
102*2028.379457 102*2027.384586 
102*2027.384586 102*2026.389716 
102*2026.389716 102*2025.394845 
102*2025.394845 102*2024.399975 
102*2024.399975 102*2023.405104 
102*2023.405104 102*2022.410234 
102*2022.410234 102*2021.415363 
102*2021.415363 102*2020.420493 
102*2020.420493 102*2019.425622 
102*2019.425622 102*2018.430752 
102*2018.430752 102*2017.435881 
102*2017.435881 102*2016.441011 
102*2016.441011 102*2015.446140 
102*2015.446140 102*2014.451270 
102*2014.451270 102*2013.456399 
102*2013.456399 102*2012.461529 
102*2012.461529 102*2011.466658 
102*2011.466658 102*2010.471788 
102*2010.471788 102*2009.476917 
102*2009.476917 102*2008.482047 
102*2008.482047 102*2007.487176 
102*2007.487176 102*2006.492306 
102*2006.492306 102*2005.497435 
102*2005.497435 102*2004.502565 
102*2004.502565 102*2003.507694 
102*2003.507694 102*2002.512824 
102*2002.512824 102*2001.517953 
102*2001.517953 102*2000.523083 
102*2000.523083 102*1999.528212 
102*1999.528212 102*1998.533342 
102*1998.533342 102*1997.538471 
102*1997.538471 102*1996.543601 
102*1996.543601 102*1995.548730 
102*1995.548730 102*1994.553860 
102*1994.553860 102*1993.558989 
102*1993.558989 102*1992.564119 
102*1992.564119 102*1991.569248 
102*1991.569248 102*1990.574378 
102*1990.574378 102*1989.579507 
102*1989.579507 102*1988.584637 
102*1988.584637 102*1987.589766 
102*1987.589766 102*1986.594896 
102*1986.594896 102*1985.600025 
102*1985.600025 102*1984.605155 
102*1984.605155 102*1983.610284 
102*1983.610284 102*1982.615414 
102*1982.615414 102*1981.620543 
102*1981.620543 102*1980.625673 
102*2033.864068 102*2032.869198 
102*2032.869198 102*2031.874327 
102*2031.874327 102*2030.879457 
102*2030.879457 102*2029.884586 
102*2029.884586 102*2028.889716 
102*2028.889716 102*2027.894845 
102*2027.894845 102*2026.899975 
102*2026.899975 102*2025.905104 
102*2025.905104 102*2024.910234 
102*2024.910234 102*2023.915363 
102*2023.915363 102*2022.920493 
102*2022.920493 102*2021.925622 
102*2021.925622 102*2020.930752 
102*2020.930752 102*2019.935881 
102*2019.935881 102*2018.941011 
102*2018.941011 102*2017.946140 
102*2017.946140 102*2016.951270 
102*2016.951270 102*2015.956399 
102*2015.956399 102*2014.961529 
102*2014.961529 102*2013.966658 
102*2013.966658 102*2012.971788 
102*2012.971788 102*2011.976917 
102*2011.976917 102*2010.982047 
102*2010.982047 102*2009.987176 
102*2009.987176 102*2008.992306 
102*2008.992306 102*2007.997435 
102*2007.997435 102*2007.002565 
102*2007.002565 102*2006.007694 
102*2006.007694 102*2005.012824 
102*2005.012824 102*2004.017953 
102*2004.017953 102*2003.023083 
102*2003.023083 102*2002.028212 
102*2002.028212 102*2001.033342 
102*2001.033342 102*2000.038471 
102*2000.038471 102*1999.043601 
102*1999.043601 102*1998.048730 
102*1998.048730 102*1997.053860 
102*1997.053860 102*1996.058989 
102*1996.058989 102*1995.064119 
102*1995.064119 102*1994.069248 
102*1994.069248 102*1993.074378 
102*1993.074378 102*1992.079507 
102*1992.079507 102*1991.084637 
102*1991.084637 102*1990.089766 
102*1990.089766 102*1989.094896 
102*1989.094896 102*1988.100025 
102*1988.100025 102*1987.105155 
102*1987.105155 102*1986.110284 
102*1986.110284 102*1985.115414 
102*1985.115414 102*1984.120543 
102*1984.120543 102*1983.125673 
102*2033.864068 102*2032.869198 
102*2032.869198 102*2031.874327 
102*2031.874327 102*2030.879457 
102*2030.879457 102*2029.884586 
102*2029.884586 102*2028.889716 
102*2028.889716 102*2027.894845 
102*2027.894845 102*2026.899975 
102*2026.899975 102*2025.905104 
102*2025.905104 102*2024.910234 
102*2024.910234 102*2023.915363 
102*2023.915363 102*2022.920493 
102*2022.920493 102*2021.925622 
102*2021.925622 102*2020.930752 
102*2020.930752 102*2019.935881 
102*2019.935881 102*2018.941011 
102*2018.941011 102*2017.946140 
102*2017.946140 102*2016.951270 
102*2016.951270 102*2015.956399 
102*2015.956399 102*2014.961529 
102*2014.961529 102*2013.966658 
102*2013.966658 102*2012.971788 
102*2012.971788 102*2011.976917 
102*2011.976917 102*2010.982047 
102*2010.982047 102*2009.987176 
102*2009.987176 102*2008.992306 
102*2008.992306 102*2007.997435 
102*2007.997435 102*2007.002565 
102*2007.002565 102*2006.007694 
102*2006.007694 102*2005.012824 
102*2005.012824 102*2004.017953 
102*2004.017953 102*2003.023083 
102*2003.023083 102*2002.028212 
102*2002.028212 102*2001.033342 
102*2001.033342 102*2000.038471 
102*2000.038471 102*1999.043601 
102*1999.043601 102*1998.048730 
102*1998.048730 102*1997.053860 
102*1997.053860 102*1996.058989 
102*1996.058989 102*1995.064119 
102*1995.064119 102*1994.069248 
102*1994.069248 102*1993.074378 
102*1993.074378 102*1992.079507 
102*1992.079507 102*1991.084637 
102*1991.084637 102*1990.089766 
102*1990.089766 102*1989.094896 
102*1989.094896 102*1988.100025 
102*1988.100025 102*1987.105155 
102*1987.105155 102*1986.110284 
102*1986.110284 102*1985.115414 
102*1985.115414 102*1984.120543 
102*1984.120543 102*1983.125673 
102*2036.364068 102*2035.369198 
102*2035.369198 102*2034.374327 
102*2034.374327 102*2033.379457 
102*2033.379457 102*2032.384586 
102*2032.384586 102*2031.389716 
102*2031.389716 102*2030.394845 
102*2030.394845 102*2029.399975 
102*2029.399975 102*2028.405104 
102*2028.405104 102*2027.410234 
102*2027.410234 102*2026.415363 
102*2026.415363 102*2025.420493 
102*2025.420493 102*2024.425622 
102*2024.425622 102*2023.430752 
102*2023.430752 102*2022.435881 
102*2022.435881 102*2021.441011 
102*2021.441011 102*2020.446140 
102*2020.446140 102*2019.451270 
102*2019.451270 102*2018.456399 
102*2018.456399 102*2017.461529 
102*2017.461529 102*2016.466658 
102*2016.466658 102*2015.471788 
102*2015.471788 102*2014.476917 
102*2014.476917 102*2013.482047 
102*2013.482047 102*2012.487176 
102*2012.487176 102*2011.492306 
102*2011.492306 102*2010.497435 
102*2010.497435 102*2009.502565 
102*2009.502565 102*2008.507694 
102*2008.507694 102*2007.512824 
102*2007.512824 102*2006.517953 
102*2006.517953 102*2005.523083 
102*2005.523083 102*2004.528212 
102*2004.528212 102*2003.533342 
102*2003.533342 102*2002.538471 
102*2002.538471 102*2001.543601 
102*2001.543601 102*2000.548730 
102*2000.548730 102*1999.553860 
102*1999.553860 102*1998.558989 
102*1998.558989 102*1997.564119 
102*1997.564119 102*1996.569248 
102*1996.569248 102*1995.574378 
102*1995.574378 102*1994.579507 
102*1994.579507 102*1993.584637 
102*1993.584637 102*1992.589766 
102*1992.589766 102*1991.594896 
102*1991.594896 102*1990.600025 
102*1990.600025 102*1989.605155 
102*1989.605155 102*1988.610284 
102*1988.610284 102*1987.615414 
102*1987.615414 102*1986.620543 
102*1986.620543 102*1985.625673 
102*2036.364068 102*2035.369198 
102*2035.369198 102*2034.374327 
102*2034.374327 102*2033.379457 
102*2033.379457 102*2032.384586 
102*2032.384586 102*2031.389716 
102*2031.389716 102*2030.394845 
102*2030.394845 102*2029.399975 
102*2029.399975 102*2028.405104 
102*2028.405104 102*2027.410234 
102*2027.410234 102*2026.415363 
102*2026.415363 102*2025.420493 
102*2025.420493 102*2024.425622 
102*2024.425622 102*2023.430752 
102*2023.430752 102*2022.435881 
102*2022.435881 102*2021.441011 
102*2021.441011 102*2020.446140 
102*2020.446140 102*2019.451270 
102*2019.451270 102*2018.456399 
102*2018.456399 102*2017.461529 
102*2017.461529 102*2016.466658 
102*2016.466658 102*2015.471788 
102*2015.471788 102*2014.476917 
102*2014.476917 102*2013.482047 
102*2013.482047 102*2012.487176 
102*2012.487176 102*2011.492306 
102*2011.492306 102*2010.497435 
102*2010.497435 102*2009.502565 
102*2009.502565 102*2008.507694 
102*2008.507694 102*2007.512824 
102*2007.512824 102*2006.517953 
102*2006.517953 102*2005.523083 
102*2005.523083 102*2004.528212 
102*2004.528212 102*2003.533342 
102*2003.533342 102*2002.538471 
102*2002.538471 102*2001.543601 
102*2001.543601 102*2000.548730 
102*2000.548730 102*1999.553860 
102*1999.553860 102*1998.558989 
102*1998.558989 102*1997.564119 
102*1997.564119 102*1996.569248 
102*1996.569248 102*1995.574378 
102*1995.574378 102*1994.579507 
102*1994.579507 102*1993.584637 
102*1993.584637 102*1992.589766 
102*1992.589766 102*1991.594896 
102*1991.594896 102*1990.600025 
102*1990.600025 102*1989.605155 
102*1989.605155 102*1988.610284 
102*1988.610284 102*1987.615414 
102*1987.615414 102*1986.620543 
102*1986.620543 102*1985.625673 
102*2038.864068 102*2037.869198 
102*2037.869198 102*2036.874327 
102*2036.874327 102*2035.879457 
102*2035.879457 102*2034.884586 
102*2034.884586 102*2033.889716 
102*2033.889716 102*2032.894845 
102*2032.894845 102*2031.899975 
102*2031.899975 102*2030.905104 
102*2030.905104 102*2029.910234 
102*2029.910234 102*2028.915363 
102*2028.915363 102*2027.920493 
102*2027.920493 102*2026.925622 
102*2026.925622 102*2025.930752 
102*2025.930752 102*2024.935881 
102*2024.935881 102*2023.941011 
102*2023.941011 102*2022.946140 
102*2022.946140 102*2021.951270 
102*2021.951270 102*2020.956399 
102*2020.956399 102*2019.961529 
102*2019.961529 102*2018.966658 
102*2018.966658 102*2017.971788 
102*2017.971788 102*2016.976917 
102*2016.976917 102*2015.982047 
102*2015.982047 102*2014.987176 
102*2014.987176 102*2013.992306 
102*2013.992306 102*2012.997435 
102*2012.997435 102*2012.002565 
102*2012.002565 102*2011.007694 
102*2011.007694 102*2010.012824 
102*2010.012824 102*2009.017953 
102*2009.017953 102*2008.023083 
102*2008.023083 102*2007.028212 
102*2007.028212 102*2006.033342 
102*2006.033342 102*2005.038471 
102*2005.038471 102*2004.043601 
102*2004.043601 102*2003.048730 
102*2003.048730 102*2002.053860 
102*2002.053860 102*2001.058989 
102*2001.058989 102*2000.064119 
102*2000.064119 102*1999.069248 
102*1999.069248 102*1998.074378 
102*1998.074378 102*1997.079507 
102*1997.079507 102*1996.084637 
102*1996.084637 102*1995.089766 
102*1995.089766 102*1994.094896 
102*1994.094896 102*1993.100025 
102*1993.100025 102*1992.105155 
102*1992.105155 102*1991.110284 
102*1991.110284 102*1990.115414 
102*1990.115414 102*1989.120543 
102*1989.120543 102*1988.125673 
102*2038.864068 102*2037.869198 
102*2037.869198 102*2036.874327 
102*2036.874327 102*2035.879457 
102*2035.879457 102*2034.884586 
102*2034.884586 102*2033.889716 
102*2033.889716 102*2032.894845 
102*2032.894845 102*2031.899975 
102*2031.899975 102*2030.905104 
102*2030.905104 102*2029.910234 
102*2029.910234 102*2028.915363 
102*2028.915363 102*2027.920493 
102*2027.920493 102*2026.925622 
102*2026.925622 102*2025.930752 
102*2025.930752 102*2024.935881 
102*2024.935881 102*2023.941011 
102*2023.941011 102*2022.946140 
102*2022.946140 102*2021.951270 
102*2021.951270 102*2020.956399 
102*2020.956399 102*2019.961529 
102*2019.961529 102*2018.966658 
102*2018.966658 102*2017.971788 
102*2017.971788 102*2016.976917 
102*2016.976917 102*2015.982047 
102*2015.982047 102*2014.987176 
102*2014.987176 102*2013.992306 
102*2013.992306 102*2012.997435 
102*2012.997435 102*2012.002565 
102*2012.002565 102*2011.007694 
102*2011.007694 102*2010.012824 
102*2010.012824 102*2009.017953 
102*2009.017953 102*2008.023083 
102*2008.023083 102*2007.028212 
102*2007.028212 102*2006.033342 
102*2006.033342 102*2005.038471 
102*2005.038471 102*2004.043601 
102*2004.043601 102*2003.048730 
102*2003.048730 102*2002.053860 
102*2002.053860 102*2001.058989 
102*2001.058989 102*2000.064119 
102*2000.064119 102*1999.069248 
102*1999.069248 102*1998.074378 
102*1998.074378 102*1997.079507 
102*1997.079507 102*1996.084637 
102*1996.084637 102*1995.089766 
102*1995.089766 102*1994.094896 
102*1994.094896 102*1993.100025 
102*1993.100025 102*1992.105155 
102*1992.105155 102*1991.110284 
102*1991.110284 102*1990.115414 
102*1990.115414 102*1989.120543 
102*1989.120543 102*1988.125673 
102*2041.364068 102*2040.369198 
102*2040.369198 102*2039.374327 
102*2039.374327 102*2038.379457 
102*2038.379457 102*2037.384586 
102*2037.384586 102*2036.389716 
102*2036.389716 102*2035.394845 
102*2035.394845 102*2034.399975 
102*2034.399975 102*2033.405104 
102*2033.405104 102*2032.410234 
102*2032.410234 102*2031.415363 
102*2031.415363 102*2030.420493 
102*2030.420493 102*2029.425622 
102*2029.425622 102*2028.430752 
102*2028.430752 102*2027.435881 
102*2027.435881 102*2026.441011 
102*2026.441011 102*2025.446140 
102*2025.446140 102*2024.451270 
102*2024.451270 102*2023.456399 
102*2023.456399 102*2022.461529 
102*2022.461529 102*2021.466658 
102*2021.466658 102*2020.471788 
102*2020.471788 102*2019.476917 
102*2019.476917 102*2018.482047 
102*2018.482047 102*2017.487176 
102*2017.487176 102*2016.492306 
102*2016.492306 102*2015.497435 
102*2015.497435 102*2014.502565 
102*2014.502565 102*2013.507694 
102*2013.507694 102*2012.512824 
102*2012.512824 102*2011.517953 
102*2011.517953 102*2010.523083 
102*2010.523083 102*2009.528212 
102*2009.528212 102*2008.533342 
102*2008.533342 102*2007.538471 
102*2007.538471 102*2006.543601 
102*2006.543601 102*2005.548730 
102*2005.548730 102*2004.553860 
102*2004.553860 102*2003.558989 
102*2003.558989 102*2002.564119 
102*2002.564119 102*2001.569248 
102*2001.569248 102*2000.574378 
102*2000.574378 102*1999.579507 
102*1999.579507 102*1998.584637 
102*1998.584637 102*1997.589766 
102*1997.589766 102*1996.594896 
102*1996.594896 102*1995.600025 
102*1995.600025 102*1994.605155 
102*1994.605155 102*1993.610284 
102*1993.610284 102*1992.615414 
102*1992.615414 102*1991.620543 
102*1991.620543 102*1990.625673 
102*2041.364068 102*2040.369198 
102*2040.369198 102*2039.374327 
102*2039.374327 102*2038.379457 
102*2038.379457 102*2037.384586 
102*2037.384586 102*2036.389716 
102*2036.389716 102*2035.394845 
102*2035.394845 102*2034.399975 
102*2034.399975 102*2033.405104 
102*2033.405104 102*2032.410234 
102*2032.410234 102*2031.415363 
102*2031.415363 102*2030.420493 
102*2030.420493 102*2029.425622 
102*2029.425622 102*2028.430752 
102*2028.430752 102*2027.435881 
102*2027.435881 102*2026.441011 
102*2026.441011 102*2025.446140 
102*2025.446140 102*2024.451270 
102*2024.451270 102*2023.456399 
102*2023.456399 102*2022.461529 
102*2022.461529 102*2021.466658 
102*2021.466658 102*2020.471788 
102*2020.471788 102*2019.476917 
102*2019.476917 102*2018.482047 
102*2018.482047 102*2017.487176 
102*2017.487176 102*2016.492306 
102*2016.492306 102*2015.497435 
102*2015.497435 102*2014.502565 
102*2014.502565 102*2013.507694 
102*2013.507694 102*2012.512824 
102*2012.512824 102*2011.517953 
102*2011.517953 102*2010.523083 
102*2010.523083 102*2009.528212 
102*2009.528212 102*2008.533342 
102*2008.533342 102*2007.538471 
102*2007.538471 102*2006.543601 
102*2006.543601 102*2005.548730 
102*2005.548730 102*2004.553860 
102*2004.553860 102*2003.558989 
102*2003.558989 102*2002.564119 
102*2002.564119 102*2001.569248 
102*2001.569248 102*2000.574378 
102*2000.574378 102*1999.579507 
102*1999.579507 102*1998.584637 
102*1998.584637 102*1997.589766 
102*1997.589766 102*1996.594896 
102*1996.594896 102*1995.600025 
102*1995.600025 102*1994.605155 
102*1994.605155 102*1993.610284 
102*1993.610284 102*1992.615414 
102*1992.615414 102*1991.620543 
102*1991.620543 102*1990.625673 
102*2043.864068 102*2042.869198 
102*2042.869198 102*2041.874327 
102*2041.874327 102*2040.879457 
102*2040.879457 102*2039.884586 
102*2039.884586 102*2038.889716 
102*2038.889716 102*2037.894845 
102*2037.894845 102*2036.899975 
102*2036.899975 102*2035.905104 
102*2035.905104 102*2034.910234 
102*2034.910234 102*2033.915363 
102*2033.915363 102*2032.920493 
102*2032.920493 102*2031.925622 
102*2031.925622 102*2030.930752 
102*2030.930752 102*2029.935881 
102*2029.935881 102*2028.941011 
102*2028.941011 102*2027.946140 
102*2027.946140 102*2026.951270 
102*2026.951270 102*2025.956399 
102*2025.956399 102*2024.961529 
102*2024.961529 102*2023.966658 
102*2023.966658 102*2022.971788 
102*2022.971788 102*2021.976917 
102*2021.976917 102*2020.982047 
102*2020.982047 102*2019.987176 
102*2019.987176 102*2018.992306 
102*2018.992306 102*2017.997435 
102*2017.997435 102*2017.002565 
102*2017.002565 102*2016.007694 
102*2016.007694 102*2015.012824 
102*2015.012824 102*2014.017953 
102*2014.017953 102*2013.023083 
102*2013.023083 102*2012.028212 
102*2012.028212 102*2011.033342 
102*2011.033342 102*2010.038471 
102*2010.038471 102*2009.043601 
102*2009.043601 102*2008.048730 
102*2008.048730 102*2007.053860 
102*2007.053860 102*2006.058989 
102*2006.058989 102*2005.064119 
102*2005.064119 102*2004.069248 
102*2004.069248 102*2003.074378 
102*2003.074378 102*2002.079507 
102*2002.079507 102*2001.084637 
102*2001.084637 102*2000.089766 
102*2000.089766 102*1999.094896 
102*1999.094896 102*1998.100025 
102*1998.100025 102*1997.105155 
102*1997.105155 102*1996.110284 
102*1996.110284 102*1995.115414 
102*1995.115414 102*1994.120543 
102*1994.120543 102*1993.125673 
102*2043.864068 102*2042.869198 
102*2042.869198 102*2041.874327 
102*2041.874327 102*2040.879457 
102*2040.879457 102*2039.884586 
102*2039.884586 102*2038.889716 
102*2038.889716 102*2037.894845 
102*2037.894845 102*2036.899975 
102*2036.899975 102*2035.905104 
102*2035.905104 102*2034.910234 
102*2034.910234 102*2033.915363 
102*2033.915363 102*2032.920493 
102*2032.920493 102*2031.925622 
102*2031.925622 102*2030.930752 
102*2030.930752 102*2029.935881 
102*2029.935881 102*2028.941011 
102*2028.941011 102*2027.946140 
102*2027.946140 102*2026.951270 
102*2026.951270 102*2025.956399 
102*2025.956399 102*2024.961529 
102*2024.961529 102*2023.966658 
102*2023.966658 102*2022.971788 
102*2022.971788 102*2021.976917 
102*2021.976917 102*2020.982047 
102*2020.982047 102*2019.987176 
102*2019.987176 102*2018.992306 
102*2018.992306 102*2017.997435 
102*2017.997435 102*2017.002565 
102*2017.002565 102*2016.007694 
102*2016.007694 102*2015.012824 
102*2015.012824 102*2014.017953 
102*2014.017953 102*2013.023083 
102*2013.023083 102*2012.028212 
102*2012.028212 102*2011.033342 
102*2011.033342 102*2010.038471 
102*2010.038471 102*2009.043601 
102*2009.043601 102*2008.048730 
102*2008.048730 102*2007.053860 
102*2007.053860 102*2006.058989 
102*2006.058989 102*2005.064119 
102*2005.064119 102*2004.069248 
102*2004.069248 102*2003.074378 
102*2003.074378 102*2002.079507 
102*2002.079507 102*2001.084637 
102*2001.084637 102*2000.089766 
102*2000.089766 102*1999.094896 
102*1999.094896 102*1998.100025 
102*1998.100025 102*1997.105155 
102*1997.105155 102*1996.110284 
102*1996.110284 102*1995.115414 
102*1995.115414 102*1994.120543 
102*1994.120543 102*1993.125673 
102*2046.364068 102*2045.369198 
102*2045.369198 102*2044.374327 
102*2044.374327 102*2043.379457 
102*2043.379457 102*2042.384586 
102*2042.384586 102*2041.389716 
102*2041.389716 102*2040.394845 
102*2040.394845 102*2039.399975 
102*2039.399975 102*2038.405104 
102*2038.405104 102*2037.410234 
102*2037.410234 102*2036.415363 
102*2036.415363 102*2035.420493 
102*2035.420493 102*2034.425622 
102*2034.425622 102*2033.430752 
102*2033.430752 102*2032.435881 
102*2032.435881 102*2031.441011 
102*2031.441011 102*2030.446140 
102*2030.446140 102*2029.451270 
102*2029.451270 102*2028.456399 
102*2028.456399 102*2027.461529 
102*2027.461529 102*2026.466658 
102*2026.466658 102*2025.471788 
102*2025.471788 102*2024.476917 
102*2024.476917 102*2023.482047 
102*2023.482047 102*2022.487176 
102*2022.487176 102*2021.492306 
102*2021.492306 102*2020.497435 
102*2020.497435 102*2019.502565 
102*2019.502565 102*2018.507694 
102*2018.507694 102*2017.512824 
102*2017.512824 102*2016.517953 
102*2016.517953 102*2015.523083 
102*2015.523083 102*2014.528212 
102*2014.528212 102*2013.533342 
102*2013.533342 102*2012.538471 
102*2012.538471 102*2011.543601 
102*2011.543601 102*2010.548730 
102*2010.548730 102*2009.553860 
102*2009.553860 102*2008.558989 
102*2008.558989 102*2007.564119 
102*2007.564119 102*2006.569248 
102*2006.569248 102*2005.574378 
102*2005.574378 102*2004.579507 
102*2004.579507 102*2003.584637 
102*2003.584637 102*2002.589766 
102*2002.589766 102*2001.594896 
102*2001.594896 102*2000.600025 
102*2000.600025 102*1999.605155 
102*1999.605155 102*1998.610284 
102*1998.610284 102*1997.615414 
102*1997.615414 102*1996.620543 
102*1996.620543 102*1995.625673 
102*2046.364068 102*2045.369198 
102*2045.369198 102*2044.374327 
102*2044.374327 102*2043.379457 
102*2043.379457 102*2042.384586 
102*2042.384586 102*2041.389716 
102*2041.389716 102*2040.394845 
102*2040.394845 102*2039.399975 
102*2039.399975 102*2038.405104 
102*2038.405104 102*2037.410234 
102*2037.410234 102*2036.415363 
102*2036.415363 102*2035.420493 
102*2035.420493 102*2034.425622 
102*2034.425622 102*2033.430752 
102*2033.430752 102*2032.435881 
102*2032.435881 102*2031.441011 
102*2031.441011 102*2030.446140 
102*2030.446140 102*2029.451270 
102*2029.451270 102*2028.456399 
102*2028.456399 102*2027.461529 
102*2027.461529 102*2026.466658 
102*2026.466658 102*2025.471788 
102*2025.471788 102*2024.476917 
102*2024.476917 102*2023.482047 
102*2023.482047 102*2022.487176 
102*2022.487176 102*2021.492306 
102*2021.492306 102*2020.497435 
102*2020.497435 102*2019.502565 
102*2019.502565 102*2018.507694 
102*2018.507694 102*2017.512824 
102*2017.512824 102*2016.517953 
102*2016.517953 102*2015.523083 
102*2015.523083 102*2014.528212 
102*2014.528212 102*2013.533342 
102*2013.533342 102*2012.538471 
102*2012.538471 102*2011.543601 
102*2011.543601 102*2010.548730 
102*2010.548730 102*2009.553860 
102*2009.553860 102*2008.558989 
102*2008.558989 102*2007.564119 
102*2007.564119 102*2006.569248 
102*2006.569248 102*2005.574378 
102*2005.574378 102*2004.579507 
102*2004.579507 102*2003.584637 
102*2003.584637 102*2002.589766 
102*2002.589766 102*2001.594896 
102*2001.594896 102*2000.600025 
102*2000.600025 102*1999.605155 
102*1999.605155 102*1998.610284 
102*1998.610284 102*1997.615414 
102*1997.615414 102*1996.620543 
102*1996.620543 102*1995.625673 
102*2048.864068 102*2047.869198 
102*2047.869198 102*2046.874327 
102*2046.874327 102*2045.879457 
102*2045.879457 102*2044.884586 
102*2044.884586 102*2043.889716 
102*2043.889716 102*2042.894845 
102*2042.894845 102*2041.899975 
102*2041.899975 102*2040.905104 
102*2040.905104 102*2039.910234 
102*2039.910234 102*2038.915363 
102*2038.915363 102*2037.920493 
102*2037.920493 102*2036.925622 
102*2036.925622 102*2035.930752 
102*2035.930752 102*2034.935881 
102*2034.935881 102*2033.941011 
102*2033.941011 102*2032.946140 
102*2032.946140 102*2031.951270 
102*2031.951270 102*2030.956399 
102*2030.956399 102*2029.961529 
102*2029.961529 102*2028.966658 
102*2028.966658 102*2027.971788 
102*2027.971788 102*2026.976917 
102*2026.976917 102*2025.982047 
102*2025.982047 102*2024.987176 
102*2024.987176 102*2023.992306 
102*2023.992306 102*2022.997435 
102*2022.997435 102*2022.002565 
102*2022.002565 102*2021.007694 
102*2021.007694 102*2020.012824 
102*2020.012824 102*2019.017953 
102*2019.017953 102*2018.023083 
102*2018.023083 102*2017.028212 
102*2017.028212 102*2016.033342 
102*2016.033342 102*2015.038471 
102*2015.038471 102*2014.043601 
102*2014.043601 102*2013.048730 
102*2013.048730 102*2012.053860 
102*2012.053860 102*2011.058989 
102*2011.058989 102*2010.064119 
102*2010.064119 102*2009.069248 
102*2009.069248 102*2008.074378 