ZCORN
102*2111.067908 102*2106.876666 
102*2106.876666 102*2102.685424 
102*2102.685424 102*2098.494182 
102*2098.494182 102*2094.302941 
102*2094.302941 102*2090.111699 
102*2090.111699 102*2085.920457 
102*2085.920457 102*2081.729215 
102*2081.729215 102*2077.537973 
102*2077.537973 102*2073.346732 
102*2073.346732 102*2069.155490 
102*2069.155490 102*2064.964248 
102*2064.964248 102*2060.773006 
102*2060.773006 102*2056.581764 
102*2056.581764 102*2052.390523 
102*2052.390523 102*2048.199281 
102*2048.199281 102*2044.008039 
102*2044.008039 102*2039.816797 
102*2039.816797 102*2035.625555 
102*2035.625555 102*2031.434314 
102*2031.434314 102*2027.243072 
102*2027.243072 102*2023.051830 
102*2023.051830 102*2018.860588 
102*2018.860588 102*2014.669346 
102*2014.669346 102*2010.478105 
102*2010.478105 102*2006.286863 
102*2006.286863 102*2002.095621 
102*2002.095621 102*1997.904379 
102*1997.904379 102*1993.713137 
102*1993.713137 102*1989.521895 
102*1989.521895 102*1985.330654 
102*1985.330654 102*1981.139412 
102*1981.139412 102*1976.948170 
102*1976.948170 102*1972.756928 
102*1972.756928 102*1968.565686 
102*1968.565686 102*1964.374445 
102*1964.374445 102*1960.183203 
102*1960.183203 102*1955.991961 
102*1955.991961 102*1951.800719 
102*1951.800719 102*1947.609477 
102*1947.609477 102*1943.418236 
102*1943.418236 102*1939.226994 
102*1939.226994 102*1935.035752 
102*1935.035752 102*1930.844510 
102*1930.844510 102*1926.653268 
102*1926.653268 102*1922.462027 
102*1922.462027 102*1918.270785 
102*1918.270785 102*1914.079543 
102*1914.079543 102*1909.888301 
102*1909.888301 102*1905.697059 
102*1905.697059 102*1901.505818 
102*1901.505818 102*1897.314576 
102*2113.567908 102*2109.376666 
102*2109.376666 102*2105.185424 
102*2105.185424 102*2100.994182 
102*2100.994182 102*2096.802941 
102*2096.802941 102*2092.611699 
102*2092.611699 102*2088.420457 
102*2088.420457 102*2084.229215 
102*2084.229215 102*2080.037973 
102*2080.037973 102*2075.846732 
102*2075.846732 102*2071.655490 
102*2071.655490 102*2067.464248 
102*2067.464248 102*2063.273006 
102*2063.273006 102*2059.081764 
102*2059.081764 102*2054.890523 
102*2054.890523 102*2050.699281 
102*2050.699281 102*2046.508039 
102*2046.508039 102*2042.316797 
102*2042.316797 102*2038.125555 
102*2038.125555 102*2033.934314 
102*2033.934314 102*2029.743072 
102*2029.743072 102*2025.551830 
102*2025.551830 102*2021.360588 
102*2021.360588 102*2017.169346 
102*2017.169346 102*2012.978105 
102*2012.978105 102*2008.786863 
102*2008.786863 102*2004.595621 
102*2004.595621 102*2000.404379 
102*2000.404379 102*1996.213137 
102*1996.213137 102*1992.021895 
102*1992.021895 102*1987.830654 
102*1987.830654 102*1983.639412 
102*1983.639412 102*1979.448170 
102*1979.448170 102*1975.256928 
102*1975.256928 102*1971.065686 
102*1971.065686 102*1966.874445 
102*1966.874445 102*1962.683203 
102*1962.683203 102*1958.491961 
102*1958.491961 102*1954.300719 
102*1954.300719 102*1950.109477 
102*1950.109477 102*1945.918236 
102*1945.918236 102*1941.726994 
102*1941.726994 102*1937.535752 
102*1937.535752 102*1933.344510 
102*1933.344510 102*1929.153268 
102*1929.153268 102*1924.962027 
102*1924.962027 102*1920.770785 
102*1920.770785 102*1916.579543 
102*1916.579543 102*1912.388301 
102*1912.388301 102*1908.197059 
102*1908.197059 102*1904.005818 
102*1904.005818 102*1899.814576 
102*2113.567908 102*2109.376666 
102*2109.376666 102*2105.185424 
102*2105.185424 102*2100.994182 
102*2100.994182 102*2096.802941 
102*2096.802941 102*2092.611699 
102*2092.611699 102*2088.420457 
102*2088.420457 102*2084.229215 
102*2084.229215 102*2080.037973 
102*2080.037973 102*2075.846732 
102*2075.846732 102*2071.655490 
102*2071.655490 102*2067.464248 
102*2067.464248 102*2063.273006 
102*2063.273006 102*2059.081764 
102*2059.081764 102*2054.890523 
102*2054.890523 102*2050.699281 
102*2050.699281 102*2046.508039 
102*2046.508039 102*2042.316797 
102*2042.316797 102*2038.125555 
102*2038.125555 102*2033.934314 
102*2033.934314 102*2029.743072 
102*2029.743072 102*2025.551830 
102*2025.551830 102*2021.360588 
102*2021.360588 102*2017.169346 
102*2017.169346 102*2012.978105 
102*2012.978105 102*2008.786863 
102*2008.786863 102*2004.595621 
102*2004.595621 102*2000.404379 
102*2000.404379 102*1996.213137 
102*1996.213137 102*1992.021895 
102*1992.021895 102*1987.830654 
102*1987.830654 102*1983.639412 
102*1983.639412 102*1979.448170 
102*1979.448170 102*1975.256928 
102*1975.256928 102*1971.065686 
102*1971.065686 102*1966.874445 
102*1966.874445 102*1962.683203 
102*1962.683203 102*1958.491961 
102*1958.491961 102*1954.300719 
102*1954.300719 102*1950.109477 
102*1950.109477 102*1945.918236 
102*1945.918236 102*1941.726994 
102*1941.726994 102*1937.535752 
102*1937.535752 102*1933.344510 
102*1933.344510 102*1929.153268 
102*1929.153268 102*1924.962027 
102*1924.962027 102*1920.770785 
102*1920.770785 102*1916.579543 
102*1916.579543 102*1912.388301 
102*1912.388301 102*1908.197059 
102*1908.197059 102*1904.005818 
102*1904.005818 102*1899.814576 
102*2116.067908 102*2111.876666 
102*2111.876666 102*2107.685424 
102*2107.685424 102*2103.494182 
102*2103.494182 102*2099.302941 
102*2099.302941 102*2095.111699 
102*2095.111699 102*2090.920457 
102*2090.920457 102*2086.729215 
102*2086.729215 102*2082.537973 
102*2082.537973 102*2078.346732 
102*2078.346732 102*2074.155490 
102*2074.155490 102*2069.964248 
102*2069.964248 102*2065.773006 
102*2065.773006 102*2061.581764 
102*2061.581764 102*2057.390523 
102*2057.390523 102*2053.199281 
102*2053.199281 102*2049.008039 
102*2049.008039 102*2044.816797 
102*2044.816797 102*2040.625555 
102*2040.625555 102*2036.434314 
102*2036.434314 102*2032.243072 
102*2032.243072 102*2028.051830 
102*2028.051830 102*2023.860588 
102*2023.860588 102*2019.669346 
102*2019.669346 102*2015.478105 
102*2015.478105 102*2011.286863 
102*2011.286863 102*2007.095621 
102*2007.095621 102*2002.904379 
102*2002.904379 102*1998.713137 
102*1998.713137 102*1994.521895 
102*1994.521895 102*1990.330654 
102*1990.330654 102*1986.139412 
102*1986.139412 102*1981.948170 
102*1981.948170 102*1977.756928 
102*1977.756928 102*1973.565686 
102*1973.565686 102*1969.374445 
102*1969.374445 102*1965.183203 
102*1965.183203 102*1960.991961 
102*1960.991961 102*1956.800719 
102*1956.800719 102*1952.609477 
102*1952.609477 102*1948.418236 
102*1948.418236 102*1944.226994 
102*1944.226994 102*1940.035752 
102*1940.035752 102*1935.844510 
102*1935.844510 102*1931.653268 
102*1931.653268 102*1927.462027 
102*1927.462027 102*1923.270785 
102*1923.270785 102*1919.079543 
102*1919.079543 102*1914.888301 
102*1914.888301 102*1910.697059 
102*1910.697059 102*1906.505818 
102*1906.505818 102*1902.314576 
102*2116.067908 102*2111.876666 
102*2111.876666 102*2107.685424 
102*2107.685424 102*2103.494182 
102*2103.494182 102*2099.302941 
102*2099.302941 102*2095.111699 
102*2095.111699 102*2090.920457 
102*2090.920457 102*2086.729215 
102*2086.729215 102*2082.537973 
102*2082.537973 102*2078.346732 
102*2078.346732 102*2074.155490 
102*2074.155490 102*2069.964248 
102*2069.964248 102*2065.773006 
102*2065.773006 102*2061.581764 
102*2061.581764 102*2057.390523 
102*2057.390523 102*2053.199281 
102*2053.199281 102*2049.008039 
102*2049.008039 102*2044.816797 
102*2044.816797 102*2040.625555 
102*2040.625555 102*2036.434314 
102*2036.434314 102*2032.243072 
102*2032.243072 102*2028.051830 
102*2028.051830 102*2023.860588 
102*2023.860588 102*2019.669346 
102*2019.669346 102*2015.478105 
102*2015.478105 102*2011.286863 
102*2011.286863 102*2007.095621 
102*2007.095621 102*2002.904379 
102*2002.904379 102*1998.713137 
102*1998.713137 102*1994.521895 
102*1994.521895 102*1990.330654 
102*1990.330654 102*1986.139412 
102*1986.139412 102*1981.948170 
102*1981.948170 102*1977.756928 
102*1977.756928 102*1973.565686 
102*1973.565686 102*1969.374445 
102*1969.374445 102*1965.183203 
102*1965.183203 102*1960.991961 
102*1960.991961 102*1956.800719 
102*1956.800719 102*1952.609477 
102*1952.609477 102*1948.418236 
102*1948.418236 102*1944.226994 
102*1944.226994 102*1940.035752 
102*1940.035752 102*1935.844510 
102*1935.844510 102*1931.653268 
102*1931.653268 102*1927.462027 
102*1927.462027 102*1923.270785 
102*1923.270785 102*1919.079543 
102*1919.079543 102*1914.888301 
102*1914.888301 102*1910.697059 
102*1910.697059 102*1906.505818 
102*1906.505818 102*1902.314576 
102*2118.567908 102*2114.376666 
102*2114.376666 102*2110.185424 
102*2110.185424 102*2105.994182 
102*2105.994182 102*2101.802941 
102*2101.802941 102*2097.611699 
102*2097.611699 102*2093.420457 
102*2093.420457 102*2089.229215 
102*2089.229215 102*2085.037973 
102*2085.037973 102*2080.846732 
102*2080.846732 102*2076.655490 
102*2076.655490 102*2072.464248 
102*2072.464248 102*2068.273006 
102*2068.273006 102*2064.081764 
102*2064.081764 102*2059.890523 
102*2059.890523 102*2055.699281 
102*2055.699281 102*2051.508039 
102*2051.508039 102*2047.316797 
102*2047.316797 102*2043.125555 
102*2043.125555 102*2038.934314 
102*2038.934314 102*2034.743072 
102*2034.743072 102*2030.551830 
102*2030.551830 102*2026.360588 
102*2026.360588 102*2022.169346 
102*2022.169346 102*2017.978105 
102*2017.978105 102*2013.786863 
102*2013.786863 102*2009.595621 
102*2009.595621 102*2005.404379 
102*2005.404379 102*2001.213137 
102*2001.213137 102*1997.021895 
102*1997.021895 102*1992.830654 
102*1992.830654 102*1988.639412 
102*1988.639412 102*1984.448170 
102*1984.448170 102*1980.256928 
102*1980.256928 102*1976.065686 
102*1976.065686 102*1971.874445 
102*1971.874445 102*1967.683203 
102*1967.683203 102*1963.491961 
102*1963.491961 102*1959.300719 
102*1959.300719 102*1955.109477 
102*1955.109477 102*1950.918236 
102*1950.918236 102*1946.726994 
102*1946.726994 102*1942.535752 
102*1942.535752 102*1938.344510 
102*1938.344510 102*1934.153268 
102*1934.153268 102*1929.962027 
102*1929.962027 102*1925.770785 
102*1925.770785 102*1921.579543 
102*1921.579543 102*1917.388301 
102*1917.388301 102*1913.197059 
102*1913.197059 102*1909.005818 
102*1909.005818 102*1904.814576 
102*2118.567908 102*2114.376666 
102*2114.376666 102*2110.185424 
102*2110.185424 102*2105.994182 
102*2105.994182 102*2101.802941 
102*2101.802941 102*2097.611699 
102*2097.611699 102*2093.420457 
102*2093.420457 102*2089.229215 
102*2089.229215 102*2085.037973 
102*2085.037973 102*2080.846732 
102*2080.846732 102*2076.655490 
102*2076.655490 102*2072.464248 
102*2072.464248 102*2068.273006 
102*2068.273006 102*2064.081764 
102*2064.081764 102*2059.890523 
102*2059.890523 102*2055.699281 
102*2055.699281 102*2051.508039 
102*2051.508039 102*2047.316797 
102*2047.316797 102*2043.125555 
102*2043.125555 102*2038.934314 
102*2038.934314 102*2034.743072 
102*2034.743072 102*2030.551830 
102*2030.551830 102*2026.360588 
102*2026.360588 102*2022.169346 
102*2022.169346 102*2017.978105 
102*2017.978105 102*2013.786863 
102*2013.786863 102*2009.595621 
102*2009.595621 102*2005.404379 
102*2005.404379 102*2001.213137 
102*2001.213137 102*1997.021895 
102*1997.021895 102*1992.830654 
102*1992.830654 102*1988.639412 
102*1988.639412 102*1984.448170 
102*1984.448170 102*1980.256928 
102*1980.256928 102*1976.065686 
102*1976.065686 102*1971.874445 
102*1971.874445 102*1967.683203 
102*1967.683203 102*1963.491961 
102*1963.491961 102*1959.300719 
102*1959.300719 102*1955.109477 
102*1955.109477 102*1950.918236 
102*1950.918236 102*1946.726994 
102*1946.726994 102*1942.535752 
102*1942.535752 102*1938.344510 
102*1938.344510 102*1934.153268 
102*1934.153268 102*1929.962027 
102*1929.962027 102*1925.770785 
102*1925.770785 102*1921.579543 
102*1921.579543 102*1917.388301 
102*1917.388301 102*1913.197059 
102*1913.197059 102*1909.005818 
102*1909.005818 102*1904.814576 
102*2121.067908 102*2116.876666 
102*2116.876666 102*2112.685424 
102*2112.685424 102*2108.494182 
102*2108.494182 102*2104.302941 
102*2104.302941 102*2100.111699 
102*2100.111699 102*2095.920457 
102*2095.920457 102*2091.729215 
102*2091.729215 102*2087.537973 
102*2087.537973 102*2083.346732 
102*2083.346732 102*2079.155490 
102*2079.155490 102*2074.964248 
102*2074.964248 102*2070.773006 
102*2070.773006 102*2066.581764 
102*2066.581764 102*2062.390523 
102*2062.390523 102*2058.199281 
102*2058.199281 102*2054.008039 
102*2054.008039 102*2049.816797 
102*2049.816797 102*2045.625555 
102*2045.625555 102*2041.434314 
102*2041.434314 102*2037.243072 
102*2037.243072 102*2033.051830 
102*2033.051830 102*2028.860588 
102*2028.860588 102*2024.669346 
102*2024.669346 102*2020.478105 
102*2020.478105 102*2016.286863 
102*2016.286863 102*2012.095621 
102*2012.095621 102*2007.904379 
102*2007.904379 102*2003.713137 
102*2003.713137 102*1999.521895 
102*1999.521895 102*1995.330654 
102*1995.330654 102*1991.139412 
102*1991.139412 102*1986.948170 
102*1986.948170 102*1982.756928 
102*1982.756928 102*1978.565686 
102*1978.565686 102*1974.374445 
102*1974.374445 102*1970.183203 
102*1970.183203 102*1965.991961 
102*1965.991961 102*1961.800719 
102*1961.800719 102*1957.609477 
102*1957.609477 102*1953.418236 
102*1953.418236 102*1949.226994 
102*1949.226994 102*1945.035752 
102*1945.035752 102*1940.844510 
102*1940.844510 102*1936.653268 
102*1936.653268 102*1932.462027 
102*1932.462027 102*1928.270785 
102*1928.270785 102*1924.079543 
102*1924.079543 102*1919.888301 
102*1919.888301 102*1915.697059 
102*1915.697059 102*1911.505818 
102*1911.505818 102*1907.314576 
102*2121.067908 102*2116.876666 
102*2116.876666 102*2112.685424 
102*2112.685424 102*2108.494182 
102*2108.494182 102*2104.302941 
102*2104.302941 102*2100.111699 
102*2100.111699 102*2095.920457 
102*2095.920457 102*2091.729215 
102*2091.729215 102*2087.537973 
102*2087.537973 102*2083.346732 
102*2083.346732 102*2079.155490 
102*2079.155490 102*2074.964248 
102*2074.964248 102*2070.773006 
102*2070.773006 102*2066.581764 
102*2066.581764 102*2062.390523 
102*2062.390523 102*2058.199281 
102*2058.199281 102*2054.008039 
102*2054.008039 102*2049.816797 
102*2049.816797 102*2045.625555 
102*2045.625555 102*2041.434314 
102*2041.434314 102*2037.243072 
102*2037.243072 102*2033.051830 
102*2033.051830 102*2028.860588 
102*2028.860588 102*2024.669346 
102*2024.669346 102*2020.478105 
102*2020.478105 102*2016.286863 
102*2016.286863 102*2012.095621 
102*2012.095621 102*2007.904379 
102*2007.904379 102*2003.713137 
102*2003.713137 102*1999.521895 
102*1999.521895 102*1995.330654 
102*1995.330654 102*1991.139412 
102*1991.139412 102*1986.948170 
102*1986.948170 102*1982.756928 
102*1982.756928 102*1978.565686 
102*1978.565686 102*1974.374445 
102*1974.374445 102*1970.183203 
102*1970.183203 102*1965.991961 
102*1965.991961 102*1961.800719 
102*1961.800719 102*1957.609477 
102*1957.609477 102*1953.418236 
102*1953.418236 102*1949.226994 
102*1949.226994 102*1945.035752 
102*1945.035752 102*1940.844510 
102*1940.844510 102*1936.653268 
102*1936.653268 102*1932.462027 
102*1932.462027 102*1928.270785 
102*1928.270785 102*1924.079543 
102*1924.079543 102*1919.888301 
102*1919.888301 102*1915.697059 
102*1915.697059 102*1911.505818 
102*1911.505818 102*1907.314576 
102*2123.567908 102*2119.376666 
102*2119.376666 102*2115.185424 
102*2115.185424 102*2110.994182 
102*2110.994182 102*2106.802941 
102*2106.802941 102*2102.611699 
102*2102.611699 102*2098.420457 
102*2098.420457 102*2094.229215 
102*2094.229215 102*2090.037973 
102*2090.037973 102*2085.846732 
102*2085.846732 102*2081.655490 
102*2081.655490 102*2077.464248 
102*2077.464248 102*2073.273006 
102*2073.273006 102*2069.081764 
102*2069.081764 102*2064.890523 
102*2064.890523 102*2060.699281 
102*2060.699281 102*2056.508039 
102*2056.508039 102*2052.316797 
102*2052.316797 102*2048.125555 
102*2048.125555 102*2043.934314 
102*2043.934314 102*2039.743072 
102*2039.743072 102*2035.551830 
102*2035.551830 102*2031.360588 
102*2031.360588 102*2027.169346 
102*2027.169346 102*2022.978105 
102*2022.978105 102*2018.786863 
102*2018.786863 102*2014.595621 
102*2014.595621 102*2010.404379 
102*2010.404379 102*2006.213137 
102*2006.213137 102*2002.021895 
102*2002.021895 102*1997.830654 
102*1997.830654 102*1993.639412 
102*1993.639412 102*1989.448170 
102*1989.448170 102*1985.256928 
102*1985.256928 102*1981.065686 
102*1981.065686 102*1976.874445 
102*1976.874445 102*1972.683203 
102*1972.683203 102*1968.491961 
102*1968.491961 102*1964.300719 
102*1964.300719 102*1960.109477 
102*1960.109477 102*1955.918236 
102*1955.918236 102*1951.726994 
102*1951.726994 102*1947.535752 
102*1947.535752 102*1943.344510 
102*1943.344510 102*1939.153268 
102*1939.153268 102*1934.962027 
102*1934.962027 102*1930.770785 
102*1930.770785 102*1926.579543 
102*1926.579543 102*1922.388301 
102*1922.388301 102*1918.197059 
102*1918.197059 102*1914.005818 
102*1914.005818 102*1909.814576 
102*2123.567908 102*2119.376666 
102*2119.376666 102*2115.185424 
102*2115.185424 102*2110.994182 
102*2110.994182 102*2106.802941 
102*2106.802941 102*2102.611699 
102*2102.611699 102*2098.420457 
102*2098.420457 102*2094.229215 
102*2094.229215 102*2090.037973 
102*2090.037973 102*2085.846732 
102*2085.846732 102*2081.655490 
102*2081.655490 102*2077.464248 
102*2077.464248 102*2073.273006 
102*2073.273006 102*2069.081764 
102*2069.081764 102*2064.890523 
102*2064.890523 102*2060.699281 
102*2060.699281 102*2056.508039 
102*2056.508039 102*2052.316797 
102*2052.316797 102*2048.125555 
102*2048.125555 102*2043.934314 
102*2043.934314 102*2039.743072 
102*2039.743072 102*2035.551830 
102*2035.551830 102*2031.360588 
102*2031.360588 102*2027.169346 
102*2027.169346 102*2022.978105 
102*2022.978105 102*2018.786863 
102*2018.786863 102*2014.595621 
102*2014.595621 102*2010.404379 
102*2010.404379 102*2006.213137 
102*2006.213137 102*2002.021895 
102*2002.021895 102*1997.830654 
102*1997.830654 102*1993.639412 
102*1993.639412 102*1989.448170 
102*1989.448170 102*1985.256928 
102*1985.256928 102*1981.065686 
102*1981.065686 102*1976.874445 
102*1976.874445 102*1972.683203 
102*1972.683203 102*1968.491961 
102*1968.491961 102*1964.300719 
102*1964.300719 102*1960.109477 
102*1960.109477 102*1955.918236 
102*1955.918236 102*1951.726994 
102*1951.726994 102*1947.535752 
102*1947.535752 102*1943.344510 
102*1943.344510 102*1939.153268 
102*1939.153268 102*1934.962027 
102*1934.962027 102*1930.770785 
102*1930.770785 102*1926.579543 
102*1926.579543 102*1922.388301 
102*1922.388301 102*1918.197059 
102*1918.197059 102*1914.005818 
102*1914.005818 102*1909.814576 
102*2126.067908 102*2121.876666 
102*2121.876666 102*2117.685424 
102*2117.685424 102*2113.494182 
102*2113.494182 102*2109.302941 
102*2109.302941 102*2105.111699 
102*2105.111699 102*2100.920457 
102*2100.920457 102*2096.729215 
102*2096.729215 102*2092.537973 
102*2092.537973 102*2088.346732 
102*2088.346732 102*2084.155490 
102*2084.155490 102*2079.964248 
102*2079.964248 102*2075.773006 
102*2075.773006 102*2071.581764 
102*2071.581764 102*2067.390523 
102*2067.390523 102*2063.199281 
102*2063.199281 102*2059.008039 
102*2059.008039 102*2054.816797 
102*2054.816797 102*2050.625555 
102*2050.625555 102*2046.434314 
102*2046.434314 102*2042.243072 
102*2042.243072 102*2038.051830 
102*2038.051830 102*2033.860588 
102*2033.860588 102*2029.669346 
102*2029.669346 102*2025.478105 
102*2025.478105 102*2021.286863 
102*2021.286863 102*2017.095621 
102*2017.095621 102*2012.904379 
102*2012.904379 102*2008.713137 
102*2008.713137 102*2004.521895 
102*2004.521895 102*2000.330654 
102*2000.330654 102*1996.139412 
102*1996.139412 102*1991.948170 
102*1991.948170 102*1987.756928 
102*1987.756928 102*1983.565686 
102*1983.565686 102*1979.374445 
102*1979.374445 102*1975.183203 
102*1975.183203 102*1970.991961 
102*1970.991961 102*1966.800719 
102*1966.800719 102*1962.609477 
102*1962.609477 102*1958.418236 
102*1958.418236 102*1954.226994 
102*1954.226994 102*1950.035752 
102*1950.035752 102*1945.844510 
102*1945.844510 102*1941.653268 
102*1941.653268 102*1937.462027 
102*1937.462027 102*1933.270785 
102*1933.270785 102*1929.079543 
102*1929.079543 102*1924.888301 
102*1924.888301 102*1920.697059 
102*1920.697059 102*1916.505818 
102*1916.505818 102*1912.314576 
102*2126.067908 102*2121.876666 
102*2121.876666 102*2117.685424 
102*2117.685424 102*2113.494182 
102*2113.494182 102*2109.302941 
102*2109.302941 102*2105.111699 
102*2105.111699 102*2100.920457 
102*2100.920457 102*2096.729215 
102*2096.729215 102*2092.537973 
102*2092.537973 102*2088.346732 
102*2088.346732 102*2084.155490 
102*2084.155490 102*2079.964248 
102*2079.964248 102*2075.773006 
102*2075.773006 102*2071.581764 
102*2071.581764 102*2067.390523 
102*2067.390523 102*2063.199281 
102*2063.199281 102*2059.008039 
102*2059.008039 102*2054.816797 
102*2054.816797 102*2050.625555 
102*2050.625555 102*2046.434314 
102*2046.434314 102*2042.243072 
102*2042.243072 102*2038.051830 
102*2038.051830 102*2033.860588 
102*2033.860588 102*2029.669346 
102*2029.669346 102*2025.478105 
102*2025.478105 102*2021.286863 
102*2021.286863 102*2017.095621 
102*2017.095621 102*2012.904379 
102*2012.904379 102*2008.713137 
102*2008.713137 102*2004.521895 
102*2004.521895 102*2000.330654 
102*2000.330654 102*1996.139412 
102*1996.139412 102*1991.948170 
102*1991.948170 102*1987.756928 
102*1987.756928 102*1983.565686 
102*1983.565686 102*1979.374445 
102*1979.374445 102*1975.183203 
102*1975.183203 102*1970.991961 
102*1970.991961 102*1966.800719 
102*1966.800719 102*1962.609477 
102*1962.609477 102*1958.418236 
102*1958.418236 102*1954.226994 
102*1954.226994 102*1950.035752 
102*1950.035752 102*1945.844510 
102*1945.844510 102*1941.653268 
102*1941.653268 102*1937.462027 
102*1937.462027 102*1933.270785 
102*1933.270785 102*1929.079543 
102*1929.079543 102*1924.888301 
102*1924.888301 102*1920.697059 
102*1920.697059 102*1916.505818 
102*1916.505818 102*1912.314576 
102*2128.567908 102*2124.376666 
102*2124.376666 102*2120.185424 
102*2120.185424 102*2115.994182 
102*2115.994182 102*2111.802941 
102*2111.802941 102*2107.611699 
102*2107.611699 102*2103.420457 
102*2103.420457 102*2099.229215 
102*2099.229215 102*2095.037973 
102*2095.037973 102*2090.846732 
102*2090.846732 102*2086.655490 
102*2086.655490 102*2082.464248 
102*2082.464248 102*2078.273006 
102*2078.273006 102*2074.081764 
102*2074.081764 102*2069.890523 
102*2069.890523 102*2065.699281 
102*2065.699281 102*2061.508039 
102*2061.508039 102*2057.316797 
102*2057.316797 102*2053.125555 
102*2053.125555 102*2048.934314 
102*2048.934314 102*2044.743072 
102*2044.743072 102*2040.551830 
102*2040.551830 102*2036.360588 
102*2036.360588 102*2032.169346 
102*2032.169346 102*2027.978105 
102*2027.978105 102*2023.786863 
102*2023.786863 102*2019.595621 
102*2019.595621 102*2015.404379 
102*2015.404379 102*2011.213137 
102*2011.213137 102*2007.021895 
102*2007.021895 102*2002.830654 
102*2002.830654 102*1998.639412 
102*1998.639412 102*1994.448170 
102*1994.448170 102*1990.256928 
102*1990.256928 102*1986.065686 
102*1986.065686 102*1981.874445 
102*1981.874445 102*1977.683203 
102*1977.683203 102*1973.491961 
102*1973.491961 102*1969.300719 
102*1969.300719 102*1965.109477 
102*1965.109477 102*1960.918236 
102*1960.918236 102*1956.726994 
102*1956.726994 102*1952.535752 
102*1952.535752 102*1948.344510 
102*1948.344510 102*1944.153268 
102*1944.153268 102*1939.962027 
102*1939.962027 102*1935.770785 
102*1935.770785 102*1931.579543 
102*1931.579543 102*1927.388301 
102*1927.388301 102*1923.197059 
102*1923.197059 102*1919.005818 
102*1919.005818 102*1914.814576 
102*2128.567908 102*2124.376666 
102*2124.376666 102*2120.185424 
102*2120.185424 102*2115.994182 
102*2115.994182 102*2111.802941 
102*2111.802941 102*2107.611699 
102*2107.611699 102*2103.420457 
102*2103.420457 102*2099.229215 
102*2099.229215 102*2095.037973 
102*2095.037973 102*2090.846732 
102*2090.846732 102*2086.655490 
102*2086.655490 102*2082.464248 
102*2082.464248 102*2078.273006 
102*2078.273006 102*2074.081764 
102*2074.081764 102*2069.890523 
102*2069.890523 102*2065.699281 
102*2065.699281 102*2061.508039 
102*2061.508039 102*2057.316797 
102*2057.316797 102*2053.125555 
102*2053.125555 102*2048.934314 
102*2048.934314 102*2044.743072 
102*2044.743072 102*2040.551830 
102*2040.551830 102*2036.360588 
102*2036.360588 102*2032.169346 
102*2032.169346 102*2027.978105 
102*2027.978105 102*2023.786863 
102*2023.786863 102*2019.595621 
102*2019.595621 102*2015.404379 
102*2015.404379 102*2011.213137 
102*2011.213137 102*2007.021895 
102*2007.021895 102*2002.830654 
102*2002.830654 102*1998.639412 
102*1998.639412 102*1994.448170 
102*1994.448170 102*1990.256928 
102*1990.256928 102*1986.065686 
102*1986.065686 102*1981.874445 
102*1981.874445 102*1977.683203 
102*1977.683203 102*1973.491961 
102*1973.491961 102*1969.300719 
102*1969.300719 102*1965.109477 
102*1965.109477 102*1960.918236 
102*1960.918236 102*1956.726994 
102*1956.726994 102*1952.535752 
102*1952.535752 102*1948.344510 
102*1948.344510 102*1944.153268 
102*1944.153268 102*1939.962027 
102*1939.962027 102*1935.770785 
102*1935.770785 102*1931.579543 
102*1931.579543 102*1927.388301 
102*1927.388301 102*1923.197059 
102*1923.197059 102*1919.005818 
102*1919.005818 102*1914.814576 
102*2131.067908 102*2126.876666 
102*2126.876666 102*2122.685424 
102*2122.685424 102*2118.494182 
102*2118.494182 102*2114.302941 
102*2114.302941 102*2110.111699 
102*2110.111699 102*2105.920457 
102*2105.920457 102*2101.729215 
102*2101.729215 102*2097.537973 
102*2097.537973 102*2093.346732 
102*2093.346732 102*2089.155490 
102*2089.155490 102*2084.964248 
102*2084.964248 102*2080.773006 
102*2080.773006 102*2076.581764 
102*2076.581764 102*2072.390523 
102*2072.390523 102*2068.199281 
102*2068.199281 102*2064.008039 
102*2064.008039 102*2059.816797 
102*2059.816797 102*2055.625555 
102*2055.625555 102*2051.434314 
102*2051.434314 102*2047.243072 
102*2047.243072 102*2043.051830 
102*2043.051830 102*2038.860588 
102*2038.860588 102*2034.669346 
102*2034.669346 102*2030.478105 
102*2030.478105 102*2026.286863 
102*2026.286863 102*2022.095621 
102*2022.095621 102*2017.904379 
102*2017.904379 102*2013.713137 
102*2013.713137 102*2009.521895 
102*2009.521895 102*2005.330654 
102*2005.330654 102*2001.139412 
102*2001.139412 102*1996.948170 
102*1996.948170 102*1992.756928 
102*1992.756928 102*1988.565686 
102*1988.565686 102*1984.374445 
102*1984.374445 102*1980.183203 
102*1980.183203 102*1975.991961 
102*1975.991961 102*1971.800719 
102*1971.800719 102*1967.609477 
102*1967.609477 102*1963.418236 
102*1963.418236 102*1959.226994 
102*1959.226994 102*1955.035752 
102*1955.035752 102*1950.844510 
102*1950.844510 102*1946.653268 
102*1946.653268 102*1942.462027 
102*1942.462027 102*1938.270785 
102*1938.270785 102*1934.079543 
102*1934.079543 102*1929.888301 
102*1929.888301 102*1925.697059 
102*1925.697059 102*1921.505818 
102*1921.505818 102*1917.314576 
102*2131.067908 102*2126.876666 
102*2126.876666 102*2122.685424 
102*2122.685424 102*2118.494182 
102*2118.494182 102*2114.302941 
102*2114.302941 102*2110.111699 
102*2110.111699 102*2105.920457 
102*2105.920457 102*2101.729215 
102*2101.729215 102*2097.537973 
102*2097.537973 102*2093.346732 
102*2093.346732 102*2089.155490 
102*2089.155490 102*2084.964248 
102*2084.964248 102*2080.773006 
102*2080.773006 102*2076.581764 
102*2076.581764 102*2072.390523 
102*2072.390523 102*2068.199281 
102*2068.199281 102*2064.008039 
102*2064.008039 102*2059.816797 
102*2059.816797 102*2055.625555 
102*2055.625555 102*2051.434314 
102*2051.434314 102*2047.243072 
102*2047.243072 102*2043.051830 
102*2043.051830 102*2038.860588 
102*2038.860588 102*2034.669346 
102*2034.669346 102*2030.478105 
102*2030.478105 102*2026.286863 
102*2026.286863 102*2022.095621 
102*2022.095621 102*2017.904379 
102*2017.904379 102*2013.713137 
102*2013.713137 102*2009.521895 
102*2009.521895 102*2005.330654 
102*2005.330654 102*2001.139412 
102*2001.139412 102*1996.948170 
102*1996.948170 102*1992.756928 
102*1992.756928 102*1988.565686 
102*1988.565686 102*1984.374445 
102*1984.374445 102*1980.183203 
102*1980.183203 102*1975.991961 
102*1975.991961 102*1971.800719 
102*1971.800719 102*1967.609477 
102*1967.609477 102*1963.418236 
102*1963.418236 102*1959.226994 
102*1959.226994 102*1955.035752 
102*1955.035752 102*1950.844510 
102*1950.844510 102*1946.653268 
102*1946.653268 102*1942.462027 
102*1942.462027 102*1938.270785 
102*1938.270785 102*1934.079543 
102*1934.079543 102*1929.888301 
102*1929.888301 102*1925.697059 
102*1925.697059 102*1921.505818 
102*1921.505818 102*1917.314576 
102*2133.567908 102*2129.376666 
102*2129.376666 102*2125.185424 
102*2125.185424 102*2120.994182 
102*2120.994182 102*2116.802941 
102*2116.802941 102*2112.611699 
102*2112.611699 102*2108.420457 
102*2108.420457 102*2104.229215 
102*2104.229215 102*2100.037973 
102*2100.037973 102*2095.846732 
102*2095.846732 102*2091.655490 
102*2091.655490 102*2087.464248 
102*2087.464248 102*2083.273006 
102*2083.273006 102*2079.081764 
102*2079.081764 102*2074.890523 
102*2074.890523 102*2070.699281 
102*2070.699281 102*2066.508039 
102*2066.508039 102*2062.316797 
102*2062.316797 102*2058.125555 
102*2058.125555 102*2053.934314 
102*2053.934314 102*2049.743072 
102*2049.743072 102*2045.551830 
102*2045.551830 102*2041.360588 
102*2041.360588 102*2037.169346 
102*2037.169346 102*2032.978105 
102*2032.978105 102*2028.786863 
102*2028.786863 102*2024.595621 
102*2024.595621 102*2020.404379 
102*2020.404379 102*2016.213137 
102*2016.213137 102*2012.021895 
102*2012.021895 102*2007.830654 
102*2007.830654 102*2003.639412 
102*2003.639412 102*1999.448170 
102*1999.448170 102*1995.256928 
102*1995.256928 102*1991.065686 
102*1991.065686 102*1986.874445 
102*1986.874445 102*1982.683203 
102*1982.683203 102*1978.491961 
102*1978.491961 102*1974.300719 
102*1974.300719 102*1970.109477 
102*1970.109477 102*1965.918236 
102*1965.918236 102*1961.726994 