ZCORN
102*2116.164896 102*2111.781315 
102*2111.781315 102*2107.397734 
102*2107.397734 102*2103.014153 
102*2103.014153 102*2098.630572 
102*2098.630572 102*2094.246991 
102*2094.246991 102*2089.863410 
102*2089.863410 102*2085.479829 
102*2085.479829 102*2081.096248 
102*2081.096248 102*2076.712667 
102*2076.712667 102*2072.329086 
102*2072.329086 102*2067.945505 
102*2067.945505 102*2063.561924 
102*2063.561924 102*2059.178343 
102*2059.178343 102*2054.794762 
102*2054.794762 102*2050.411181 
102*2050.411181 102*2046.027600 
102*2046.027600 102*2041.644019 
102*2041.644019 102*2037.260438 
102*2037.260438 102*2032.876857 
102*2032.876857 102*2028.493276 
102*2028.493276 102*2024.109695 
102*2024.109695 102*2019.726114 
102*2019.726114 102*2015.342533 
102*2015.342533 102*2010.958952 
102*2010.958952 102*2006.575371 
102*2006.575371 102*2002.191790 
102*2002.191790 102*1997.808210 
102*1997.808210 102*1993.424629 
102*1993.424629 102*1989.041048 
102*1989.041048 102*1984.657467 
102*1984.657467 102*1980.273886 
102*1980.273886 102*1975.890305 
102*1975.890305 102*1971.506724 
102*1971.506724 102*1967.123143 
102*1967.123143 102*1962.739562 
102*1962.739562 102*1958.355981 
102*1958.355981 102*1953.972400 
102*1953.972400 102*1949.588819 
102*1949.588819 102*1945.205238 
102*1945.205238 102*1940.821657 
102*1940.821657 102*1936.438076 
102*1936.438076 102*1932.054495 
102*1932.054495 102*1927.670914 
102*1927.670914 102*1923.287333 
102*1923.287333 102*1918.903752 
102*1918.903752 102*1914.520171 
102*1914.520171 102*1910.136590 
102*1910.136590 102*1905.753009 
102*1905.753009 102*1901.369428 
102*1901.369428 102*1896.985847 
102*1896.985847 102*1892.602266 
102*2118.664896 102*2114.281315 
102*2114.281315 102*2109.897734 
102*2109.897734 102*2105.514153 
102*2105.514153 102*2101.130572 
102*2101.130572 102*2096.746991 
102*2096.746991 102*2092.363410 
102*2092.363410 102*2087.979829 
102*2087.979829 102*2083.596248 
102*2083.596248 102*2079.212667 
102*2079.212667 102*2074.829086 
102*2074.829086 102*2070.445505 
102*2070.445505 102*2066.061924 
102*2066.061924 102*2061.678343 
102*2061.678343 102*2057.294762 
102*2057.294762 102*2052.911181 
102*2052.911181 102*2048.527600 
102*2048.527600 102*2044.144019 
102*2044.144019 102*2039.760438 
102*2039.760438 102*2035.376857 
102*2035.376857 102*2030.993276 
102*2030.993276 102*2026.609695 
102*2026.609695 102*2022.226114 
102*2022.226114 102*2017.842533 
102*2017.842533 102*2013.458952 
102*2013.458952 102*2009.075371 
102*2009.075371 102*2004.691790 
102*2004.691790 102*2000.308210 
102*2000.308210 102*1995.924629 
102*1995.924629 102*1991.541048 
102*1991.541048 102*1987.157467 
102*1987.157467 102*1982.773886 
102*1982.773886 102*1978.390305 
102*1978.390305 102*1974.006724 
102*1974.006724 102*1969.623143 
102*1969.623143 102*1965.239562 
102*1965.239562 102*1960.855981 
102*1960.855981 102*1956.472400 
102*1956.472400 102*1952.088819 
102*1952.088819 102*1947.705238 
102*1947.705238 102*1943.321657 
102*1943.321657 102*1938.938076 
102*1938.938076 102*1934.554495 
102*1934.554495 102*1930.170914 
102*1930.170914 102*1925.787333 
102*1925.787333 102*1921.403752 
102*1921.403752 102*1917.020171 
102*1917.020171 102*1912.636590 
102*1912.636590 102*1908.253009 
102*1908.253009 102*1903.869428 
102*1903.869428 102*1899.485847 
102*1899.485847 102*1895.102266 
102*2118.664896 102*2114.281315 
102*2114.281315 102*2109.897734 
102*2109.897734 102*2105.514153 
102*2105.514153 102*2101.130572 
102*2101.130572 102*2096.746991 
102*2096.746991 102*2092.363410 
102*2092.363410 102*2087.979829 
102*2087.979829 102*2083.596248 
102*2083.596248 102*2079.212667 
102*2079.212667 102*2074.829086 
102*2074.829086 102*2070.445505 
102*2070.445505 102*2066.061924 
102*2066.061924 102*2061.678343 
102*2061.678343 102*2057.294762 
102*2057.294762 102*2052.911181 
102*2052.911181 102*2048.527600 
102*2048.527600 102*2044.144019 
102*2044.144019 102*2039.760438 
102*2039.760438 102*2035.376857 
102*2035.376857 102*2030.993276 
102*2030.993276 102*2026.609695 
102*2026.609695 102*2022.226114 
102*2022.226114 102*2017.842533 
102*2017.842533 102*2013.458952 
102*2013.458952 102*2009.075371 
102*2009.075371 102*2004.691790 
102*2004.691790 102*2000.308210 
102*2000.308210 102*1995.924629 
102*1995.924629 102*1991.541048 
102*1991.541048 102*1987.157467 
102*1987.157467 102*1982.773886 
102*1982.773886 102*1978.390305 
102*1978.390305 102*1974.006724 
102*1974.006724 102*1969.623143 
102*1969.623143 102*1965.239562 
102*1965.239562 102*1960.855981 
102*1960.855981 102*1956.472400 
102*1956.472400 102*1952.088819 
102*1952.088819 102*1947.705238 
102*1947.705238 102*1943.321657 
102*1943.321657 102*1938.938076 
102*1938.938076 102*1934.554495 
102*1934.554495 102*1930.170914 
102*1930.170914 102*1925.787333 
102*1925.787333 102*1921.403752 
102*1921.403752 102*1917.020171 
102*1917.020171 102*1912.636590 
102*1912.636590 102*1908.253009 
102*1908.253009 102*1903.869428 
102*1903.869428 102*1899.485847 
102*1899.485847 102*1895.102266 
102*2121.164896 102*2116.781315 
102*2116.781315 102*2112.397734 
102*2112.397734 102*2108.014153 
102*2108.014153 102*2103.630572 
102*2103.630572 102*2099.246991 
102*2099.246991 102*2094.863410 
102*2094.863410 102*2090.479829 
102*2090.479829 102*2086.096248 
102*2086.096248 102*2081.712667 
102*2081.712667 102*2077.329086 
102*2077.329086 102*2072.945505 
102*2072.945505 102*2068.561924 
102*2068.561924 102*2064.178343 
102*2064.178343 102*2059.794762 
102*2059.794762 102*2055.411181 
102*2055.411181 102*2051.027600 
102*2051.027600 102*2046.644019 
102*2046.644019 102*2042.260438 
102*2042.260438 102*2037.876857 
102*2037.876857 102*2033.493276 
102*2033.493276 102*2029.109695 
102*2029.109695 102*2024.726114 
102*2024.726114 102*2020.342533 
102*2020.342533 102*2015.958952 
102*2015.958952 102*2011.575371 
102*2011.575371 102*2007.191790 
102*2007.191790 102*2002.808210 
102*2002.808210 102*1998.424629 
102*1998.424629 102*1994.041048 
102*1994.041048 102*1989.657467 
102*1989.657467 102*1985.273886 
102*1985.273886 102*1980.890305 
102*1980.890305 102*1976.506724 
102*1976.506724 102*1972.123143 
102*1972.123143 102*1967.739562 
102*1967.739562 102*1963.355981 
102*1963.355981 102*1958.972400 
102*1958.972400 102*1954.588819 
102*1954.588819 102*1950.205238 
102*1950.205238 102*1945.821657 
102*1945.821657 102*1941.438076 
102*1941.438076 102*1937.054495 
102*1937.054495 102*1932.670914 
102*1932.670914 102*1928.287333 
102*1928.287333 102*1923.903752 
102*1923.903752 102*1919.520171 
102*1919.520171 102*1915.136590 
102*1915.136590 102*1910.753009 
102*1910.753009 102*1906.369428 
102*1906.369428 102*1901.985847 
102*1901.985847 102*1897.602266 
102*2121.164896 102*2116.781315 
102*2116.781315 102*2112.397734 
102*2112.397734 102*2108.014153 
102*2108.014153 102*2103.630572 
102*2103.630572 102*2099.246991 
102*2099.246991 102*2094.863410 
102*2094.863410 102*2090.479829 
102*2090.479829 102*2086.096248 
102*2086.096248 102*2081.712667 
102*2081.712667 102*2077.329086 
102*2077.329086 102*2072.945505 
102*2072.945505 102*2068.561924 
102*2068.561924 102*2064.178343 
102*2064.178343 102*2059.794762 
102*2059.794762 102*2055.411181 
102*2055.411181 102*2051.027600 
102*2051.027600 102*2046.644019 
102*2046.644019 102*2042.260438 
102*2042.260438 102*2037.876857 
102*2037.876857 102*2033.493276 
102*2033.493276 102*2029.109695 
102*2029.109695 102*2024.726114 
102*2024.726114 102*2020.342533 
102*2020.342533 102*2015.958952 
102*2015.958952 102*2011.575371 
102*2011.575371 102*2007.191790 
102*2007.191790 102*2002.808210 
102*2002.808210 102*1998.424629 
102*1998.424629 102*1994.041048 
102*1994.041048 102*1989.657467 
102*1989.657467 102*1985.273886 
102*1985.273886 102*1980.890305 
102*1980.890305 102*1976.506724 
102*1976.506724 102*1972.123143 
102*1972.123143 102*1967.739562 
102*1967.739562 102*1963.355981 
102*1963.355981 102*1958.972400 
102*1958.972400 102*1954.588819 
102*1954.588819 102*1950.205238 
102*1950.205238 102*1945.821657 
102*1945.821657 102*1941.438076 
102*1941.438076 102*1937.054495 
102*1937.054495 102*1932.670914 
102*1932.670914 102*1928.287333 
102*1928.287333 102*1923.903752 
102*1923.903752 102*1919.520171 
102*1919.520171 102*1915.136590 
102*1915.136590 102*1910.753009 
102*1910.753009 102*1906.369428 
102*1906.369428 102*1901.985847 
102*1901.985847 102*1897.602266 
102*2123.664896 102*2119.281315 
102*2119.281315 102*2114.897734 
102*2114.897734 102*2110.514153 
102*2110.514153 102*2106.130572 
102*2106.130572 102*2101.746991 
102*2101.746991 102*2097.363410 
102*2097.363410 102*2092.979829 
102*2092.979829 102*2088.596248 
102*2088.596248 102*2084.212667 
102*2084.212667 102*2079.829086 
102*2079.829086 102*2075.445505 
102*2075.445505 102*2071.061924 
102*2071.061924 102*2066.678343 
102*2066.678343 102*2062.294762 
102*2062.294762 102*2057.911181 
102*2057.911181 102*2053.527600 
102*2053.527600 102*2049.144019 
102*2049.144019 102*2044.760438 
102*2044.760438 102*2040.376857 
102*2040.376857 102*2035.993276 
102*2035.993276 102*2031.609695 
102*2031.609695 102*2027.226114 
102*2027.226114 102*2022.842533 
102*2022.842533 102*2018.458952 
102*2018.458952 102*2014.075371 
102*2014.075371 102*2009.691790 
102*2009.691790 102*2005.308210 
102*2005.308210 102*2000.924629 
102*2000.924629 102*1996.541048 
102*1996.541048 102*1992.157467 
102*1992.157467 102*1987.773886 
102*1987.773886 102*1983.390305 
102*1983.390305 102*1979.006724 
102*1979.006724 102*1974.623143 
102*1974.623143 102*1970.239562 
102*1970.239562 102*1965.855981 
102*1965.855981 102*1961.472400 
102*1961.472400 102*1957.088819 
102*1957.088819 102*1952.705238 
102*1952.705238 102*1948.321657 
102*1948.321657 102*1943.938076 
102*1943.938076 102*1939.554495 
102*1939.554495 102*1935.170914 
102*1935.170914 102*1930.787333 
102*1930.787333 102*1926.403752 
102*1926.403752 102*1922.020171 
102*1922.020171 102*1917.636590 
102*1917.636590 102*1913.253009 
102*1913.253009 102*1908.869428 
102*1908.869428 102*1904.485847 
102*1904.485847 102*1900.102266 
102*2123.664896 102*2119.281315 
102*2119.281315 102*2114.897734 
102*2114.897734 102*2110.514153 
102*2110.514153 102*2106.130572 
102*2106.130572 102*2101.746991 
102*2101.746991 102*2097.363410 
102*2097.363410 102*2092.979829 
102*2092.979829 102*2088.596248 
102*2088.596248 102*2084.212667 
102*2084.212667 102*2079.829086 
102*2079.829086 102*2075.445505 
102*2075.445505 102*2071.061924 
102*2071.061924 102*2066.678343 
102*2066.678343 102*2062.294762 
102*2062.294762 102*2057.911181 
102*2057.911181 102*2053.527600 
102*2053.527600 102*2049.144019 
102*2049.144019 102*2044.760438 
102*2044.760438 102*2040.376857 
102*2040.376857 102*2035.993276 
102*2035.993276 102*2031.609695 
102*2031.609695 102*2027.226114 
102*2027.226114 102*2022.842533 
102*2022.842533 102*2018.458952 
102*2018.458952 102*2014.075371 
102*2014.075371 102*2009.691790 
102*2009.691790 102*2005.308210 
102*2005.308210 102*2000.924629 
102*2000.924629 102*1996.541048 
102*1996.541048 102*1992.157467 
102*1992.157467 102*1987.773886 
102*1987.773886 102*1983.390305 
102*1983.390305 102*1979.006724 
102*1979.006724 102*1974.623143 
102*1974.623143 102*1970.239562 
102*1970.239562 102*1965.855981 
102*1965.855981 102*1961.472400 
102*1961.472400 102*1957.088819 
102*1957.088819 102*1952.705238 
102*1952.705238 102*1948.321657 
102*1948.321657 102*1943.938076 
102*1943.938076 102*1939.554495 
102*1939.554495 102*1935.170914 
102*1935.170914 102*1930.787333 
102*1930.787333 102*1926.403752 
102*1926.403752 102*1922.020171 
102*1922.020171 102*1917.636590 
102*1917.636590 102*1913.253009 
102*1913.253009 102*1908.869428 
102*1908.869428 102*1904.485847 
102*1904.485847 102*1900.102266 
102*2126.164896 102*2121.781315 
102*2121.781315 102*2117.397734 
102*2117.397734 102*2113.014153 
102*2113.014153 102*2108.630572 
102*2108.630572 102*2104.246991 
102*2104.246991 102*2099.863410 
102*2099.863410 102*2095.479829 
102*2095.479829 102*2091.096248 
102*2091.096248 102*2086.712667 
102*2086.712667 102*2082.329086 
102*2082.329086 102*2077.945505 
102*2077.945505 102*2073.561924 
102*2073.561924 102*2069.178343 
102*2069.178343 102*2064.794762 
102*2064.794762 102*2060.411181 
102*2060.411181 102*2056.027600 
102*2056.027600 102*2051.644019 
102*2051.644019 102*2047.260438 
102*2047.260438 102*2042.876857 
102*2042.876857 102*2038.493276 
102*2038.493276 102*2034.109695 
102*2034.109695 102*2029.726114 
102*2029.726114 102*2025.342533 
102*2025.342533 102*2020.958952 
102*2020.958952 102*2016.575371 
102*2016.575371 102*2012.191790 
102*2012.191790 102*2007.808210 
102*2007.808210 102*2003.424629 
102*2003.424629 102*1999.041048 
102*1999.041048 102*1994.657467 
102*1994.657467 102*1990.273886 
102*1990.273886 102*1985.890305 
102*1985.890305 102*1981.506724 
102*1981.506724 102*1977.123143 
102*1977.123143 102*1972.739562 
102*1972.739562 102*1968.355981 
102*1968.355981 102*1963.972400 
102*1963.972400 102*1959.588819 
102*1959.588819 102*1955.205238 
102*1955.205238 102*1950.821657 
102*1950.821657 102*1946.438076 
102*1946.438076 102*1942.054495 
102*1942.054495 102*1937.670914 
102*1937.670914 102*1933.287333 
102*1933.287333 102*1928.903752 
102*1928.903752 102*1924.520171 
102*1924.520171 102*1920.136590 
102*1920.136590 102*1915.753009 
102*1915.753009 102*1911.369428 
102*1911.369428 102*1906.985847 
102*1906.985847 102*1902.602266 
102*2126.164896 102*2121.781315 
102*2121.781315 102*2117.397734 
102*2117.397734 102*2113.014153 
102*2113.014153 102*2108.630572 
102*2108.630572 102*2104.246991 
102*2104.246991 102*2099.863410 
102*2099.863410 102*2095.479829 
102*2095.479829 102*2091.096248 
102*2091.096248 102*2086.712667 
102*2086.712667 102*2082.329086 
102*2082.329086 102*2077.945505 
102*2077.945505 102*2073.561924 
102*2073.561924 102*2069.178343 
102*2069.178343 102*2064.794762 
102*2064.794762 102*2060.411181 
102*2060.411181 102*2056.027600 
102*2056.027600 102*2051.644019 
102*2051.644019 102*2047.260438 
102*2047.260438 102*2042.876857 
102*2042.876857 102*2038.493276 
102*2038.493276 102*2034.109695 
102*2034.109695 102*2029.726114 
102*2029.726114 102*2025.342533 
102*2025.342533 102*2020.958952 
102*2020.958952 102*2016.575371 
102*2016.575371 102*2012.191790 
102*2012.191790 102*2007.808210 
102*2007.808210 102*2003.424629 
102*2003.424629 102*1999.041048 
102*1999.041048 102*1994.657467 
102*1994.657467 102*1990.273886 
102*1990.273886 102*1985.890305 
102*1985.890305 102*1981.506724 
102*1981.506724 102*1977.123143 
102*1977.123143 102*1972.739562 
102*1972.739562 102*1968.355981 
102*1968.355981 102*1963.972400 
102*1963.972400 102*1959.588819 
102*1959.588819 102*1955.205238 
102*1955.205238 102*1950.821657 
102*1950.821657 102*1946.438076 
102*1946.438076 102*1942.054495 
102*1942.054495 102*1937.670914 
102*1937.670914 102*1933.287333 
102*1933.287333 102*1928.903752 
102*1928.903752 102*1924.520171 
102*1924.520171 102*1920.136590 
102*1920.136590 102*1915.753009 
102*1915.753009 102*1911.369428 
102*1911.369428 102*1906.985847 
102*1906.985847 102*1902.602266 
102*2128.664896 102*2124.281315 
102*2124.281315 102*2119.897734 
102*2119.897734 102*2115.514153 
102*2115.514153 102*2111.130572 
102*2111.130572 102*2106.746991 
102*2106.746991 102*2102.363410 
102*2102.363410 102*2097.979829 
102*2097.979829 102*2093.596248 
102*2093.596248 102*2089.212667 
102*2089.212667 102*2084.829086 
102*2084.829086 102*2080.445505 
102*2080.445505 102*2076.061924 
102*2076.061924 102*2071.678343 
102*2071.678343 102*2067.294762 
102*2067.294762 102*2062.911181 
102*2062.911181 102*2058.527600 
102*2058.527600 102*2054.144019 
102*2054.144019 102*2049.760438 
102*2049.760438 102*2045.376857 
102*2045.376857 102*2040.993276 
102*2040.993276 102*2036.609695 
102*2036.609695 102*2032.226114 
102*2032.226114 102*2027.842533 
102*2027.842533 102*2023.458952 
102*2023.458952 102*2019.075371 
102*2019.075371 102*2014.691790 
102*2014.691790 102*2010.308210 
102*2010.308210 102*2005.924629 
102*2005.924629 102*2001.541048 
102*2001.541048 102*1997.157467 
102*1997.157467 102*1992.773886 
102*1992.773886 102*1988.390305 
102*1988.390305 102*1984.006724 
102*1984.006724 102*1979.623143 
102*1979.623143 102*1975.239562 
102*1975.239562 102*1970.855981 
102*1970.855981 102*1966.472400 
102*1966.472400 102*1962.088819 
102*1962.088819 102*1957.705238 
102*1957.705238 102*1953.321657 
102*1953.321657 102*1948.938076 
102*1948.938076 102*1944.554495 
102*1944.554495 102*1940.170914 
102*1940.170914 102*1935.787333 
102*1935.787333 102*1931.403752 
102*1931.403752 102*1927.020171 
102*1927.020171 102*1922.636590 
102*1922.636590 102*1918.253009 
102*1918.253009 102*1913.869428 
102*1913.869428 102*1909.485847 
102*1909.485847 102*1905.102266 
102*2128.664896 102*2124.281315 
102*2124.281315 102*2119.897734 
102*2119.897734 102*2115.514153 
102*2115.514153 102*2111.130572 
102*2111.130572 102*2106.746991 
102*2106.746991 102*2102.363410 
102*2102.363410 102*2097.979829 
102*2097.979829 102*2093.596248 
102*2093.596248 102*2089.212667 
102*2089.212667 102*2084.829086 
102*2084.829086 102*2080.445505 
102*2080.445505 102*2076.061924 
102*2076.061924 102*2071.678343 
102*2071.678343 102*2067.294762 
102*2067.294762 102*2062.911181 
102*2062.911181 102*2058.527600 
102*2058.527600 102*2054.144019 
102*2054.144019 102*2049.760438 
102*2049.760438 102*2045.376857 
102*2045.376857 102*2040.993276 
102*2040.993276 102*2036.609695 
102*2036.609695 102*2032.226114 
102*2032.226114 102*2027.842533 
102*2027.842533 102*2023.458952 
102*2023.458952 102*2019.075371 
102*2019.075371 102*2014.691790 
102*2014.691790 102*2010.308210 
102*2010.308210 102*2005.924629 
102*2005.924629 102*2001.541048 
102*2001.541048 102*1997.157467 
102*1997.157467 102*1992.773886 
102*1992.773886 102*1988.390305 
102*1988.390305 102*1984.006724 
102*1984.006724 102*1979.623143 
102*1979.623143 102*1975.239562 
102*1975.239562 102*1970.855981 
102*1970.855981 102*1966.472400 
102*1966.472400 102*1962.088819 
102*1962.088819 102*1957.705238 
102*1957.705238 102*1953.321657 
102*1953.321657 102*1948.938076 
102*1948.938076 102*1944.554495 
102*1944.554495 102*1940.170914 
102*1940.170914 102*1935.787333 
102*1935.787333 102*1931.403752 
102*1931.403752 102*1927.020171 
102*1927.020171 102*1922.636590 
102*1922.636590 102*1918.253009 
102*1918.253009 102*1913.869428 
102*1913.869428 102*1909.485847 
102*1909.485847 102*1905.102266 
102*2131.164896 102*2126.781315 
102*2126.781315 102*2122.397734 
102*2122.397734 102*2118.014153 
102*2118.014153 102*2113.630572 
102*2113.630572 102*2109.246991 
102*2109.246991 102*2104.863410 
102*2104.863410 102*2100.479829 
102*2100.479829 102*2096.096248 
102*2096.096248 102*2091.712667 
102*2091.712667 102*2087.329086 
102*2087.329086 102*2082.945505 
102*2082.945505 102*2078.561924 
102*2078.561924 102*2074.178343 
102*2074.178343 102*2069.794762 
102*2069.794762 102*2065.411181 
102*2065.411181 102*2061.027600 
102*2061.027600 102*2056.644019 
102*2056.644019 102*2052.260438 
102*2052.260438 102*2047.876857 
102*2047.876857 102*2043.493276 
102*2043.493276 102*2039.109695 
102*2039.109695 102*2034.726114 
102*2034.726114 102*2030.342533 
102*2030.342533 102*2025.958952 
102*2025.958952 102*2021.575371 
102*2021.575371 102*2017.191790 
102*2017.191790 102*2012.808210 
102*2012.808210 102*2008.424629 
102*2008.424629 102*2004.041048 
102*2004.041048 102*1999.657467 
102*1999.657467 102*1995.273886 
102*1995.273886 102*1990.890305 
102*1990.890305 102*1986.506724 
102*1986.506724 102*1982.123143 
102*1982.123143 102*1977.739562 
102*1977.739562 102*1973.355981 
102*1973.355981 102*1968.972400 
102*1968.972400 102*1964.588819 
102*1964.588819 102*1960.205238 
102*1960.205238 102*1955.821657 
102*1955.821657 102*1951.438076 
102*1951.438076 102*1947.054495 
102*1947.054495 102*1942.670914 
102*1942.670914 102*1938.287333 
102*1938.287333 102*1933.903752 
102*1933.903752 102*1929.520171 
102*1929.520171 102*1925.136590 
102*1925.136590 102*1920.753009 
102*1920.753009 102*1916.369428 
102*1916.369428 102*1911.985847 
102*1911.985847 102*1907.602266 
102*2131.164896 102*2126.781315 
102*2126.781315 102*2122.397734 
102*2122.397734 102*2118.014153 
102*2118.014153 102*2113.630572 
102*2113.630572 102*2109.246991 
102*2109.246991 102*2104.863410 
102*2104.863410 102*2100.479829 
102*2100.479829 102*2096.096248 
102*2096.096248 102*2091.712667 
102*2091.712667 102*2087.329086 
102*2087.329086 102*2082.945505 
102*2082.945505 102*2078.561924 
102*2078.561924 102*2074.178343 
102*2074.178343 102*2069.794762 
102*2069.794762 102*2065.411181 
102*2065.411181 102*2061.027600 
102*2061.027600 102*2056.644019 
102*2056.644019 102*2052.260438 
102*2052.260438 102*2047.876857 
102*2047.876857 102*2043.493276 
102*2043.493276 102*2039.109695 
102*2039.109695 102*2034.726114 
102*2034.726114 102*2030.342533 
102*2030.342533 102*2025.958952 
102*2025.958952 102*2021.575371 
102*2021.575371 102*2017.191790 
102*2017.191790 102*2012.808210 
102*2012.808210 102*2008.424629 
102*2008.424629 102*2004.041048 
102*2004.041048 102*1999.657467 
102*1999.657467 102*1995.273886 
102*1995.273886 102*1990.890305 
102*1990.890305 102*1986.506724 
102*1986.506724 102*1982.123143 
102*1982.123143 102*1977.739562 
102*1977.739562 102*1973.355981 
102*1973.355981 102*1968.972400 
102*1968.972400 102*1964.588819 
102*1964.588819 102*1960.205238 
102*1960.205238 102*1955.821657 
102*1955.821657 102*1951.438076 
102*1951.438076 102*1947.054495 
102*1947.054495 102*1942.670914 
102*1942.670914 102*1938.287333 
102*1938.287333 102*1933.903752 
102*1933.903752 102*1929.520171 
102*1929.520171 102*1925.136590 
102*1925.136590 102*1920.753009 
102*1920.753009 102*1916.369428 
102*1916.369428 102*1911.985847 
102*1911.985847 102*1907.602266 
102*2133.664896 102*2129.281315 
102*2129.281315 102*2124.897734 
102*2124.897734 102*2120.514153 
102*2120.514153 102*2116.130572 
102*2116.130572 102*2111.746991 
102*2111.746991 102*2107.363410 
102*2107.363410 102*2102.979829 
102*2102.979829 102*2098.596248 
102*2098.596248 102*2094.212667 
102*2094.212667 102*2089.829086 
102*2089.829086 102*2085.445505 
102*2085.445505 102*2081.061924 
102*2081.061924 102*2076.678343 
102*2076.678343 102*2072.294762 
102*2072.294762 102*2067.911181 
102*2067.911181 102*2063.527600 
102*2063.527600 102*2059.144019 
102*2059.144019 102*2054.760438 
102*2054.760438 102*2050.376857 
102*2050.376857 102*2045.993276 
102*2045.993276 102*2041.609695 
102*2041.609695 102*2037.226114 
102*2037.226114 102*2032.842533 
102*2032.842533 102*2028.458952 
102*2028.458952 102*2024.075371 
102*2024.075371 102*2019.691790 
102*2019.691790 102*2015.308210 
102*2015.308210 102*2010.924629 
102*2010.924629 102*2006.541048 
102*2006.541048 102*2002.157467 
102*2002.157467 102*1997.773886 
102*1997.773886 102*1993.390305 
102*1993.390305 102*1989.006724 
102*1989.006724 102*1984.623143 
102*1984.623143 102*1980.239562 
102*1980.239562 102*1975.855981 
102*1975.855981 102*1971.472400 
102*1971.472400 102*1967.088819 
102*1967.088819 102*1962.705238 
102*1962.705238 102*1958.321657 
102*1958.321657 102*1953.938076 
102*1953.938076 102*1949.554495 
102*1949.554495 102*1945.170914 
102*1945.170914 102*1940.787333 
102*1940.787333 102*1936.403752 
102*1936.403752 102*1932.020171 
102*1932.020171 102*1927.636590 
102*1927.636590 102*1923.253009 
102*1923.253009 102*1918.869428 
102*1918.869428 102*1914.485847 
102*1914.485847 102*1910.102266 
102*2133.664896 102*2129.281315 
102*2129.281315 102*2124.897734 
102*2124.897734 102*2120.514153 
102*2120.514153 102*2116.130572 
102*2116.130572 102*2111.746991 
102*2111.746991 102*2107.363410 
102*2107.363410 102*2102.979829 
102*2102.979829 102*2098.596248 
102*2098.596248 102*2094.212667 
102*2094.212667 102*2089.829086 
102*2089.829086 102*2085.445505 
102*2085.445505 102*2081.061924 
102*2081.061924 102*2076.678343 
102*2076.678343 102*2072.294762 
102*2072.294762 102*2067.911181 
102*2067.911181 102*2063.527600 
102*2063.527600 102*2059.144019 
102*2059.144019 102*2054.760438 
102*2054.760438 102*2050.376857 
102*2050.376857 102*2045.993276 
102*2045.993276 102*2041.609695 
102*2041.609695 102*2037.226114 
102*2037.226114 102*2032.842533 
102*2032.842533 102*2028.458952 
102*2028.458952 102*2024.075371 
102*2024.075371 102*2019.691790 
102*2019.691790 102*2015.308210 
102*2015.308210 102*2010.924629 
102*2010.924629 102*2006.541048 
102*2006.541048 102*2002.157467 
102*2002.157467 102*1997.773886 
102*1997.773886 102*1993.390305 
102*1993.390305 102*1989.006724 
102*1989.006724 102*1984.623143 
102*1984.623143 102*1980.239562 
102*1980.239562 102*1975.855981 
102*1975.855981 102*1971.472400 
102*1971.472400 102*1967.088819 
102*1967.088819 102*1962.705238 
102*1962.705238 102*1958.321657 
102*1958.321657 102*1953.938076 
102*1953.938076 102*1949.554495 
102*1949.554495 102*1945.170914 
102*1945.170914 102*1940.787333 
102*1940.787333 102*1936.403752 
102*1936.403752 102*1932.020171 
102*1932.020171 102*1927.636590 
102*1927.636590 102*1923.253009 
102*1923.253009 102*1918.869428 
102*1918.869428 102*1914.485847 
102*1914.485847 102*1910.102266 
102*2136.164896 102*2131.781315 
102*2131.781315 102*2127.397734 
102*2127.397734 102*2123.014153 
102*2123.014153 102*2118.630572 
102*2118.630572 102*2114.246991 
102*2114.246991 102*2109.863410 
102*2109.863410 102*2105.479829 
102*2105.479829 102*2101.096248 
102*2101.096248 102*2096.712667 
102*2096.712667 102*2092.329086 
102*2092.329086 102*2087.945505 
102*2087.945505 102*2083.561924 
102*2083.561924 102*2079.178343 
102*2079.178343 102*2074.794762 
102*2074.794762 102*2070.411181 
102*2070.411181 102*2066.027600 
102*2066.027600 102*2061.644019 
102*2061.644019 102*2057.260438 
102*2057.260438 102*2052.876857 
102*2052.876857 102*2048.493276 
102*2048.493276 102*2044.109695 
102*2044.109695 102*2039.726114 
102*2039.726114 102*2035.342533 
102*2035.342533 102*2030.958952 
102*2030.958952 102*2026.575371 
102*2026.575371 102*2022.191790 
102*2022.191790 102*2017.808210 
102*2017.808210 102*2013.424629 
102*2013.424629 102*2009.041048 
102*2009.041048 102*2004.657467 
102*2004.657467 102*2000.273886 
102*2000.273886 102*1995.890305 
102*1995.890305 102*1991.506724 
102*1991.506724 102*1987.123143 
102*1987.123143 102*1982.739562 
102*1982.739562 102*1978.355981 
102*1978.355981 102*1973.972400 
102*1973.972400 102*1969.588819 
102*1969.588819 102*1965.205238 
102*1965.205238 102*1960.821657 
102*1960.821657 102*1956.438076 
102*1956.438076 102*1952.054495 
102*1952.054495 102*1947.670914 
102*1947.670914 102*1943.287333 
102*1943.287333 102*1938.903752 
102*1938.903752 102*1934.520171 
102*1934.520171 102*1930.136590 
102*1930.136590 102*1925.753009 
102*1925.753009 102*1921.369428 
102*1921.369428 102*1916.985847 
102*1916.985847 102*1912.602266 
102*2136.164896 102*2131.781315 
102*2131.781315 102*2127.397734 
102*2127.397734 102*2123.014153 
102*2123.014153 102*2118.630572 
102*2118.630572 102*2114.246991 
102*2114.246991 102*2109.863410 
102*2109.863410 102*2105.479829 
102*2105.479829 102*2101.096248 
102*2101.096248 102*2096.712667 
102*2096.712667 102*2092.329086 
102*2092.329086 102*2087.945505 
102*2087.945505 102*2083.561924 
102*2083.561924 102*2079.178343 
102*2079.178343 102*2074.794762 
102*2074.794762 102*2070.411181 
102*2070.411181 102*2066.027600 
102*2066.027600 102*2061.644019 
102*2061.644019 102*2057.260438 
102*2057.260438 102*2052.876857 
102*2052.876857 102*2048.493276 
102*2048.493276 102*2044.109695 
102*2044.109695 102*2039.726114 
102*2039.726114 102*2035.342533 
102*2035.342533 102*2030.958952 
102*2030.958952 102*2026.575371 
102*2026.575371 102*2022.191790 
102*2022.191790 102*2017.808210 
102*2017.808210 102*2013.424629 
102*2013.424629 102*2009.041048 
102*2009.041048 102*2004.657467 
102*2004.657467 102*2000.273886 
102*2000.273886 102*1995.890305 
102*1995.890305 102*1991.506724 
102*1991.506724 102*1987.123143 
102*1987.123143 102*1982.739562 
102*1982.739562 102*1978.355981 
102*1978.355981 102*1973.972400 
102*1973.972400 102*1969.588819 
102*1969.588819 102*1965.205238 
102*1965.205238 102*1960.821657 
102*1960.821657 102*1956.438076 
102*1956.438076 102*1952.054495 
102*1952.054495 102*1947.670914 
102*1947.670914 102*1943.287333 
102*1943.287333 102*1938.903752 
102*1938.903752 102*1934.520171 
102*1934.520171 102*1930.136590 
102*1930.136590 102*1925.753009 
102*1925.753009 102*1921.369428 
102*1921.369428 102*1916.985847 
102*1916.985847 102*1912.602266 
102*2138.664896 102*2134.281315 
102*2134.281315 102*2129.897734 
102*2129.897734 102*2125.514153 
102*2125.514153 102*2121.130572 
102*2121.130572 102*2116.746991 
102*2116.746991 102*2112.363410 
102*2112.363410 102*2107.979829 
102*2107.979829 102*2103.596248 
102*2103.596248 102*2099.212667 
102*2099.212667 102*2094.829086 
102*2094.829086 102*2090.445505 
102*2090.445505 102*2086.061924 
102*2086.061924 102*2081.678343 
102*2081.678343 102*2077.294762 
102*2077.294762 102*2072.911181 
102*2072.911181 102*2068.527600 
102*2068.527600 102*2064.144019 
102*2064.144019 102*2059.760438 
102*2059.760438 102*2055.376857 
102*2055.376857 102*2050.993276 
102*2050.993276 102*2046.609695 
102*2046.609695 102*2042.226114 
102*2042.226114 102*2037.842533 
102*2037.842533 102*2033.458952 
102*2033.458952 102*2029.075371 
102*2029.075371 102*2024.691790 
102*2024.691790 102*2020.308210 
102*2020.308210 102*2015.924629 
102*2015.924629 102*2011.541048 
102*2011.541048 102*2007.157467 
102*2007.157467 102*2002.773886 
102*2002.773886 102*1998.390305 
102*1998.390305 102*1994.006724 
102*1994.006724 102*1989.623143 
102*1989.623143 102*1985.239562 
102*1985.239562 102*1980.855981 
102*1980.855981 102*1976.472400 
102*1976.472400 102*1972.088819 
102*1972.088819 102*1967.705238 
102*1967.705238 102*1963.321657 
102*1963.321657 102*1958.938076 