ZCORN
102*2022.663653 102*2021.808421 
102*2021.808421 102*2020.953189 
102*2020.953189 102*2020.097956 
102*2020.097956 102*2019.242724 
102*2019.242724 102*2018.387492 
102*2018.387492 102*2017.532260 
102*2017.532260 102*2016.677028 
102*2016.677028 102*2015.821795 
102*2015.821795 102*2014.966563 
102*2014.966563 102*2014.111331 
102*2014.111331 102*2013.256099 
102*2013.256099 102*2012.400867 
102*2012.400867 102*2011.545634 
102*2011.545634 102*2010.690402 
102*2010.690402 102*2009.835170 
102*2009.835170 102*2008.979938 
102*2008.979938 102*2008.124706 
102*2008.124706 102*2007.269474 
102*2007.269474 102*2006.414241 
102*2006.414241 102*2005.559009 
102*2005.559009 102*2004.703777 
102*2004.703777 102*2003.848545 
102*2003.848545 102*2002.993313 
102*2002.993313 102*2002.138080 
102*2002.138080 102*2001.282848 
102*2001.282848 102*2000.427616 
102*2000.427616 102*1999.572384 
102*1999.572384 102*1998.717152 
102*1998.717152 102*1997.861920 
102*1997.861920 102*1997.006687 
102*1997.006687 102*1996.151455 
102*1996.151455 102*1995.296223 
102*1995.296223 102*1994.440991 
102*1994.440991 102*1993.585759 
102*1993.585759 102*1992.730526 
102*1992.730526 102*1991.875294 
102*1991.875294 102*1991.020062 
102*1991.020062 102*1990.164830 
102*1990.164830 102*1989.309598 
102*1989.309598 102*1988.454366 
102*1988.454366 102*1987.599133 
102*1987.599133 102*1986.743901 
102*1986.743901 102*1985.888669 
102*1985.888669 102*1985.033437 
102*1985.033437 102*1984.178205 
102*1984.178205 102*1983.322972 
102*1983.322972 102*1982.467740 
102*1982.467740 102*1981.612508 
102*1981.612508 102*1980.757276 
102*1980.757276 102*1979.902044 
102*1979.902044 102*1979.046811 
102*2025.163653 102*2024.308421 
102*2024.308421 102*2023.453189 
102*2023.453189 102*2022.597956 
102*2022.597956 102*2021.742724 
102*2021.742724 102*2020.887492 
102*2020.887492 102*2020.032260 
102*2020.032260 102*2019.177028 
102*2019.177028 102*2018.321795 
102*2018.321795 102*2017.466563 
102*2017.466563 102*2016.611331 
102*2016.611331 102*2015.756099 
102*2015.756099 102*2014.900867 
102*2014.900867 102*2014.045634 
102*2014.045634 102*2013.190402 
102*2013.190402 102*2012.335170 
102*2012.335170 102*2011.479938 
102*2011.479938 102*2010.624706 
102*2010.624706 102*2009.769474 
102*2009.769474 102*2008.914241 
102*2008.914241 102*2008.059009 
102*2008.059009 102*2007.203777 
102*2007.203777 102*2006.348545 
102*2006.348545 102*2005.493313 
102*2005.493313 102*2004.638080 
102*2004.638080 102*2003.782848 
102*2003.782848 102*2002.927616 
102*2002.927616 102*2002.072384 
102*2002.072384 102*2001.217152 
102*2001.217152 102*2000.361920 
102*2000.361920 102*1999.506687 
102*1999.506687 102*1998.651455 
102*1998.651455 102*1997.796223 
102*1997.796223 102*1996.940991 
102*1996.940991 102*1996.085759 
102*1996.085759 102*1995.230526 
102*1995.230526 102*1994.375294 
102*1994.375294 102*1993.520062 
102*1993.520062 102*1992.664830 
102*1992.664830 102*1991.809598 
102*1991.809598 102*1990.954366 
102*1990.954366 102*1990.099133 
102*1990.099133 102*1989.243901 
102*1989.243901 102*1988.388669 
102*1988.388669 102*1987.533437 
102*1987.533437 102*1986.678205 
102*1986.678205 102*1985.822972 
102*1985.822972 102*1984.967740 
102*1984.967740 102*1984.112508 
102*1984.112508 102*1983.257276 
102*1983.257276 102*1982.402044 
102*1982.402044 102*1981.546811 
102*2025.163653 102*2024.308421 
102*2024.308421 102*2023.453189 
102*2023.453189 102*2022.597956 
102*2022.597956 102*2021.742724 
102*2021.742724 102*2020.887492 
102*2020.887492 102*2020.032260 
102*2020.032260 102*2019.177028 
102*2019.177028 102*2018.321795 
102*2018.321795 102*2017.466563 
102*2017.466563 102*2016.611331 
102*2016.611331 102*2015.756099 
102*2015.756099 102*2014.900867 
102*2014.900867 102*2014.045634 
102*2014.045634 102*2013.190402 
102*2013.190402 102*2012.335170 
102*2012.335170 102*2011.479938 
102*2011.479938 102*2010.624706 
102*2010.624706 102*2009.769474 
102*2009.769474 102*2008.914241 
102*2008.914241 102*2008.059009 
102*2008.059009 102*2007.203777 
102*2007.203777 102*2006.348545 
102*2006.348545 102*2005.493313 
102*2005.493313 102*2004.638080 
102*2004.638080 102*2003.782848 
102*2003.782848 102*2002.927616 
102*2002.927616 102*2002.072384 
102*2002.072384 102*2001.217152 
102*2001.217152 102*2000.361920 
102*2000.361920 102*1999.506687 
102*1999.506687 102*1998.651455 
102*1998.651455 102*1997.796223 
102*1997.796223 102*1996.940991 
102*1996.940991 102*1996.085759 
102*1996.085759 102*1995.230526 
102*1995.230526 102*1994.375294 
102*1994.375294 102*1993.520062 
102*1993.520062 102*1992.664830 
102*1992.664830 102*1991.809598 
102*1991.809598 102*1990.954366 
102*1990.954366 102*1990.099133 
102*1990.099133 102*1989.243901 
102*1989.243901 102*1988.388669 
102*1988.388669 102*1987.533437 
102*1987.533437 102*1986.678205 
102*1986.678205 102*1985.822972 
102*1985.822972 102*1984.967740 
102*1984.967740 102*1984.112508 
102*1984.112508 102*1983.257276 
102*1983.257276 102*1982.402044 
102*1982.402044 102*1981.546811 
102*2027.663653 102*2026.808421 
102*2026.808421 102*2025.953189 
102*2025.953189 102*2025.097956 
102*2025.097956 102*2024.242724 
102*2024.242724 102*2023.387492 
102*2023.387492 102*2022.532260 
102*2022.532260 102*2021.677028 
102*2021.677028 102*2020.821795 
102*2020.821795 102*2019.966563 
102*2019.966563 102*2019.111331 
102*2019.111331 102*2018.256099 
102*2018.256099 102*2017.400867 
102*2017.400867 102*2016.545634 
102*2016.545634 102*2015.690402 
102*2015.690402 102*2014.835170 
102*2014.835170 102*2013.979938 
102*2013.979938 102*2013.124706 
102*2013.124706 102*2012.269474 
102*2012.269474 102*2011.414241 
102*2011.414241 102*2010.559009 
102*2010.559009 102*2009.703777 
102*2009.703777 102*2008.848545 
102*2008.848545 102*2007.993313 
102*2007.993313 102*2007.138080 
102*2007.138080 102*2006.282848 
102*2006.282848 102*2005.427616 
102*2005.427616 102*2004.572384 
102*2004.572384 102*2003.717152 
102*2003.717152 102*2002.861920 
102*2002.861920 102*2002.006687 
102*2002.006687 102*2001.151455 
102*2001.151455 102*2000.296223 
102*2000.296223 102*1999.440991 
102*1999.440991 102*1998.585759 
102*1998.585759 102*1997.730526 
102*1997.730526 102*1996.875294 
102*1996.875294 102*1996.020062 
102*1996.020062 102*1995.164830 
102*1995.164830 102*1994.309598 
102*1994.309598 102*1993.454366 
102*1993.454366 102*1992.599133 
102*1992.599133 102*1991.743901 
102*1991.743901 102*1990.888669 
102*1990.888669 102*1990.033437 
102*1990.033437 102*1989.178205 
102*1989.178205 102*1988.322972 
102*1988.322972 102*1987.467740 
102*1987.467740 102*1986.612508 
102*1986.612508 102*1985.757276 
102*1985.757276 102*1984.902044 
102*1984.902044 102*1984.046811 
102*2027.663653 102*2026.808421 
102*2026.808421 102*2025.953189 
102*2025.953189 102*2025.097956 
102*2025.097956 102*2024.242724 
102*2024.242724 102*2023.387492 
102*2023.387492 102*2022.532260 
102*2022.532260 102*2021.677028 
102*2021.677028 102*2020.821795 
102*2020.821795 102*2019.966563 
102*2019.966563 102*2019.111331 
102*2019.111331 102*2018.256099 
102*2018.256099 102*2017.400867 
102*2017.400867 102*2016.545634 
102*2016.545634 102*2015.690402 
102*2015.690402 102*2014.835170 
102*2014.835170 102*2013.979938 
102*2013.979938 102*2013.124706 
102*2013.124706 102*2012.269474 
102*2012.269474 102*2011.414241 
102*2011.414241 102*2010.559009 
102*2010.559009 102*2009.703777 
102*2009.703777 102*2008.848545 
102*2008.848545 102*2007.993313 
102*2007.993313 102*2007.138080 
102*2007.138080 102*2006.282848 
102*2006.282848 102*2005.427616 
102*2005.427616 102*2004.572384 
102*2004.572384 102*2003.717152 
102*2003.717152 102*2002.861920 
102*2002.861920 102*2002.006687 
102*2002.006687 102*2001.151455 
102*2001.151455 102*2000.296223 
102*2000.296223 102*1999.440991 
102*1999.440991 102*1998.585759 
102*1998.585759 102*1997.730526 
102*1997.730526 102*1996.875294 
102*1996.875294 102*1996.020062 
102*1996.020062 102*1995.164830 
102*1995.164830 102*1994.309598 
102*1994.309598 102*1993.454366 
102*1993.454366 102*1992.599133 
102*1992.599133 102*1991.743901 
102*1991.743901 102*1990.888669 
102*1990.888669 102*1990.033437 
102*1990.033437 102*1989.178205 
102*1989.178205 102*1988.322972 
102*1988.322972 102*1987.467740 
102*1987.467740 102*1986.612508 
102*1986.612508 102*1985.757276 
102*1985.757276 102*1984.902044 
102*1984.902044 102*1984.046811 
102*2030.163653 102*2029.308421 
102*2029.308421 102*2028.453189 
102*2028.453189 102*2027.597956 
102*2027.597956 102*2026.742724 
102*2026.742724 102*2025.887492 
102*2025.887492 102*2025.032260 
102*2025.032260 102*2024.177028 
102*2024.177028 102*2023.321795 
102*2023.321795 102*2022.466563 
102*2022.466563 102*2021.611331 
102*2021.611331 102*2020.756099 
102*2020.756099 102*2019.900867 
102*2019.900867 102*2019.045634 
102*2019.045634 102*2018.190402 
102*2018.190402 102*2017.335170 
102*2017.335170 102*2016.479938 
102*2016.479938 102*2015.624706 
102*2015.624706 102*2014.769474 
102*2014.769474 102*2013.914241 
102*2013.914241 102*2013.059009 
102*2013.059009 102*2012.203777 
102*2012.203777 102*2011.348545 
102*2011.348545 102*2010.493313 
102*2010.493313 102*2009.638080 
102*2009.638080 102*2008.782848 
102*2008.782848 102*2007.927616 
102*2007.927616 102*2007.072384 
102*2007.072384 102*2006.217152 
102*2006.217152 102*2005.361920 
102*2005.361920 102*2004.506687 
102*2004.506687 102*2003.651455 
102*2003.651455 102*2002.796223 
102*2002.796223 102*2001.940991 
102*2001.940991 102*2001.085759 
102*2001.085759 102*2000.230526 
102*2000.230526 102*1999.375294 
102*1999.375294 102*1998.520062 
102*1998.520062 102*1997.664830 
102*1997.664830 102*1996.809598 
102*1996.809598 102*1995.954366 
102*1995.954366 102*1995.099133 
102*1995.099133 102*1994.243901 
102*1994.243901 102*1993.388669 
102*1993.388669 102*1992.533437 
102*1992.533437 102*1991.678205 
102*1991.678205 102*1990.822972 
102*1990.822972 102*1989.967740 
102*1989.967740 102*1989.112508 
102*1989.112508 102*1988.257276 
102*1988.257276 102*1987.402044 
102*1987.402044 102*1986.546811 
102*2030.163653 102*2029.308421 
102*2029.308421 102*2028.453189 
102*2028.453189 102*2027.597956 
102*2027.597956 102*2026.742724 
102*2026.742724 102*2025.887492 
102*2025.887492 102*2025.032260 
102*2025.032260 102*2024.177028 
102*2024.177028 102*2023.321795 
102*2023.321795 102*2022.466563 
102*2022.466563 102*2021.611331 
102*2021.611331 102*2020.756099 
102*2020.756099 102*2019.900867 
102*2019.900867 102*2019.045634 
102*2019.045634 102*2018.190402 
102*2018.190402 102*2017.335170 
102*2017.335170 102*2016.479938 
102*2016.479938 102*2015.624706 
102*2015.624706 102*2014.769474 
102*2014.769474 102*2013.914241 
102*2013.914241 102*2013.059009 
102*2013.059009 102*2012.203777 
102*2012.203777 102*2011.348545 
102*2011.348545 102*2010.493313 
102*2010.493313 102*2009.638080 
102*2009.638080 102*2008.782848 
102*2008.782848 102*2007.927616 
102*2007.927616 102*2007.072384 
102*2007.072384 102*2006.217152 
102*2006.217152 102*2005.361920 
102*2005.361920 102*2004.506687 
102*2004.506687 102*2003.651455 
102*2003.651455 102*2002.796223 
102*2002.796223 102*2001.940991 
102*2001.940991 102*2001.085759 
102*2001.085759 102*2000.230526 
102*2000.230526 102*1999.375294 
102*1999.375294 102*1998.520062 
102*1998.520062 102*1997.664830 
102*1997.664830 102*1996.809598 
102*1996.809598 102*1995.954366 
102*1995.954366 102*1995.099133 
102*1995.099133 102*1994.243901 
102*1994.243901 102*1993.388669 
102*1993.388669 102*1992.533437 
102*1992.533437 102*1991.678205 
102*1991.678205 102*1990.822972 
102*1990.822972 102*1989.967740 
102*1989.967740 102*1989.112508 
102*1989.112508 102*1988.257276 
102*1988.257276 102*1987.402044 
102*1987.402044 102*1986.546811 
102*2032.663653 102*2031.808421 
102*2031.808421 102*2030.953189 
102*2030.953189 102*2030.097956 
102*2030.097956 102*2029.242724 
102*2029.242724 102*2028.387492 
102*2028.387492 102*2027.532260 
102*2027.532260 102*2026.677028 
102*2026.677028 102*2025.821795 
102*2025.821795 102*2024.966563 
102*2024.966563 102*2024.111331 
102*2024.111331 102*2023.256099 
102*2023.256099 102*2022.400867 
102*2022.400867 102*2021.545634 
102*2021.545634 102*2020.690402 
102*2020.690402 102*2019.835170 
102*2019.835170 102*2018.979938 
102*2018.979938 102*2018.124706 
102*2018.124706 102*2017.269474 
102*2017.269474 102*2016.414241 
102*2016.414241 102*2015.559009 
102*2015.559009 102*2014.703777 
102*2014.703777 102*2013.848545 
102*2013.848545 102*2012.993313 
102*2012.993313 102*2012.138080 
102*2012.138080 102*2011.282848 
102*2011.282848 102*2010.427616 
102*2010.427616 102*2009.572384 
102*2009.572384 102*2008.717152 
102*2008.717152 102*2007.861920 
102*2007.861920 102*2007.006687 
102*2007.006687 102*2006.151455 
102*2006.151455 102*2005.296223 
102*2005.296223 102*2004.440991 
102*2004.440991 102*2003.585759 
102*2003.585759 102*2002.730526 
102*2002.730526 102*2001.875294 
102*2001.875294 102*2001.020062 
102*2001.020062 102*2000.164830 
102*2000.164830 102*1999.309598 
102*1999.309598 102*1998.454366 
102*1998.454366 102*1997.599133 
102*1997.599133 102*1996.743901 
102*1996.743901 102*1995.888669 
102*1995.888669 102*1995.033437 
102*1995.033437 102*1994.178205 
102*1994.178205 102*1993.322972 
102*1993.322972 102*1992.467740 
102*1992.467740 102*1991.612508 
102*1991.612508 102*1990.757276 
102*1990.757276 102*1989.902044 
102*1989.902044 102*1989.046811 
102*2032.663653 102*2031.808421 
102*2031.808421 102*2030.953189 
102*2030.953189 102*2030.097956 
102*2030.097956 102*2029.242724 
102*2029.242724 102*2028.387492 
102*2028.387492 102*2027.532260 
102*2027.532260 102*2026.677028 
102*2026.677028 102*2025.821795 
102*2025.821795 102*2024.966563 
102*2024.966563 102*2024.111331 
102*2024.111331 102*2023.256099 
102*2023.256099 102*2022.400867 
102*2022.400867 102*2021.545634 
102*2021.545634 102*2020.690402 
102*2020.690402 102*2019.835170 
102*2019.835170 102*2018.979938 
102*2018.979938 102*2018.124706 
102*2018.124706 102*2017.269474 
102*2017.269474 102*2016.414241 
102*2016.414241 102*2015.559009 
102*2015.559009 102*2014.703777 
102*2014.703777 102*2013.848545 
102*2013.848545 102*2012.993313 
102*2012.993313 102*2012.138080 
102*2012.138080 102*2011.282848 
102*2011.282848 102*2010.427616 
102*2010.427616 102*2009.572384 
102*2009.572384 102*2008.717152 
102*2008.717152 102*2007.861920 
102*2007.861920 102*2007.006687 
102*2007.006687 102*2006.151455 
102*2006.151455 102*2005.296223 
102*2005.296223 102*2004.440991 
102*2004.440991 102*2003.585759 
102*2003.585759 102*2002.730526 
102*2002.730526 102*2001.875294 
102*2001.875294 102*2001.020062 
102*2001.020062 102*2000.164830 
102*2000.164830 102*1999.309598 
102*1999.309598 102*1998.454366 
102*1998.454366 102*1997.599133 
102*1997.599133 102*1996.743901 
102*1996.743901 102*1995.888669 
102*1995.888669 102*1995.033437 
102*1995.033437 102*1994.178205 
102*1994.178205 102*1993.322972 
102*1993.322972 102*1992.467740 
102*1992.467740 102*1991.612508 
102*1991.612508 102*1990.757276 
102*1990.757276 102*1989.902044 
102*1989.902044 102*1989.046811 
102*2035.163653 102*2034.308421 
102*2034.308421 102*2033.453189 
102*2033.453189 102*2032.597956 
102*2032.597956 102*2031.742724 
102*2031.742724 102*2030.887492 
102*2030.887492 102*2030.032260 
102*2030.032260 102*2029.177028 
102*2029.177028 102*2028.321795 
102*2028.321795 102*2027.466563 
102*2027.466563 102*2026.611331 
102*2026.611331 102*2025.756099 
102*2025.756099 102*2024.900867 
102*2024.900867 102*2024.045634 
102*2024.045634 102*2023.190402 
102*2023.190402 102*2022.335170 
102*2022.335170 102*2021.479938 
102*2021.479938 102*2020.624706 
102*2020.624706 102*2019.769474 
102*2019.769474 102*2018.914241 
102*2018.914241 102*2018.059009 
102*2018.059009 102*2017.203777 
102*2017.203777 102*2016.348545 
102*2016.348545 102*2015.493313 
102*2015.493313 102*2014.638080 
102*2014.638080 102*2013.782848 
102*2013.782848 102*2012.927616 
102*2012.927616 102*2012.072384 
102*2012.072384 102*2011.217152 
102*2011.217152 102*2010.361920 
102*2010.361920 102*2009.506687 
102*2009.506687 102*2008.651455 
102*2008.651455 102*2007.796223 
102*2007.796223 102*2006.940991 
102*2006.940991 102*2006.085759 
102*2006.085759 102*2005.230526 
102*2005.230526 102*2004.375294 
102*2004.375294 102*2003.520062 
102*2003.520062 102*2002.664830 
102*2002.664830 102*2001.809598 
102*2001.809598 102*2000.954366 
102*2000.954366 102*2000.099133 
102*2000.099133 102*1999.243901 
102*1999.243901 102*1998.388669 
102*1998.388669 102*1997.533437 
102*1997.533437 102*1996.678205 
102*1996.678205 102*1995.822972 
102*1995.822972 102*1994.967740 
102*1994.967740 102*1994.112508 
102*1994.112508 102*1993.257276 
102*1993.257276 102*1992.402044 
102*1992.402044 102*1991.546811 
102*2035.163653 102*2034.308421 
102*2034.308421 102*2033.453189 
102*2033.453189 102*2032.597956 
102*2032.597956 102*2031.742724 
102*2031.742724 102*2030.887492 
102*2030.887492 102*2030.032260 
102*2030.032260 102*2029.177028 
102*2029.177028 102*2028.321795 
102*2028.321795 102*2027.466563 
102*2027.466563 102*2026.611331 
102*2026.611331 102*2025.756099 
102*2025.756099 102*2024.900867 
102*2024.900867 102*2024.045634 
102*2024.045634 102*2023.190402 
102*2023.190402 102*2022.335170 
102*2022.335170 102*2021.479938 
102*2021.479938 102*2020.624706 
102*2020.624706 102*2019.769474 
102*2019.769474 102*2018.914241 
102*2018.914241 102*2018.059009 
102*2018.059009 102*2017.203777 
102*2017.203777 102*2016.348545 
102*2016.348545 102*2015.493313 
102*2015.493313 102*2014.638080 
102*2014.638080 102*2013.782848 
102*2013.782848 102*2012.927616 
102*2012.927616 102*2012.072384 
102*2012.072384 102*2011.217152 
102*2011.217152 102*2010.361920 
102*2010.361920 102*2009.506687 
102*2009.506687 102*2008.651455 
102*2008.651455 102*2007.796223 
102*2007.796223 102*2006.940991 
102*2006.940991 102*2006.085759 
102*2006.085759 102*2005.230526 
102*2005.230526 102*2004.375294 
102*2004.375294 102*2003.520062 
102*2003.520062 102*2002.664830 
102*2002.664830 102*2001.809598 
102*2001.809598 102*2000.954366 
102*2000.954366 102*2000.099133 
102*2000.099133 102*1999.243901 
102*1999.243901 102*1998.388669 
102*1998.388669 102*1997.533437 
102*1997.533437 102*1996.678205 
102*1996.678205 102*1995.822972 
102*1995.822972 102*1994.967740 
102*1994.967740 102*1994.112508 
102*1994.112508 102*1993.257276 
102*1993.257276 102*1992.402044 
102*1992.402044 102*1991.546811 
102*2037.663653 102*2036.808421 
102*2036.808421 102*2035.953189 
102*2035.953189 102*2035.097956 
102*2035.097956 102*2034.242724 
102*2034.242724 102*2033.387492 
102*2033.387492 102*2032.532260 
102*2032.532260 102*2031.677028 
102*2031.677028 102*2030.821795 
102*2030.821795 102*2029.966563 
102*2029.966563 102*2029.111331 
102*2029.111331 102*2028.256099 
102*2028.256099 102*2027.400867 
102*2027.400867 102*2026.545634 
102*2026.545634 102*2025.690402 
102*2025.690402 102*2024.835170 
102*2024.835170 102*2023.979938 
102*2023.979938 102*2023.124706 
102*2023.124706 102*2022.269474 
102*2022.269474 102*2021.414241 
102*2021.414241 102*2020.559009 
102*2020.559009 102*2019.703777 
102*2019.703777 102*2018.848545 
102*2018.848545 102*2017.993313 
102*2017.993313 102*2017.138080 
102*2017.138080 102*2016.282848 
102*2016.282848 102*2015.427616 
102*2015.427616 102*2014.572384 
102*2014.572384 102*2013.717152 
102*2013.717152 102*2012.861920 
102*2012.861920 102*2012.006687 
102*2012.006687 102*2011.151455 
102*2011.151455 102*2010.296223 
102*2010.296223 102*2009.440991 
102*2009.440991 102*2008.585759 
102*2008.585759 102*2007.730526 
102*2007.730526 102*2006.875294 
102*2006.875294 102*2006.020062 
102*2006.020062 102*2005.164830 
102*2005.164830 102*2004.309598 
102*2004.309598 102*2003.454366 
102*2003.454366 102*2002.599133 
102*2002.599133 102*2001.743901 
102*2001.743901 102*2000.888669 
102*2000.888669 102*2000.033437 
102*2000.033437 102*1999.178205 
102*1999.178205 102*1998.322972 
102*1998.322972 102*1997.467740 
102*1997.467740 102*1996.612508 
102*1996.612508 102*1995.757276 
102*1995.757276 102*1994.902044 
102*1994.902044 102*1994.046811 
102*2037.663653 102*2036.808421 
102*2036.808421 102*2035.953189 
102*2035.953189 102*2035.097956 
102*2035.097956 102*2034.242724 
102*2034.242724 102*2033.387492 
102*2033.387492 102*2032.532260 
102*2032.532260 102*2031.677028 
102*2031.677028 102*2030.821795 
102*2030.821795 102*2029.966563 
102*2029.966563 102*2029.111331 
102*2029.111331 102*2028.256099 
102*2028.256099 102*2027.400867 
102*2027.400867 102*2026.545634 
102*2026.545634 102*2025.690402 
102*2025.690402 102*2024.835170 
102*2024.835170 102*2023.979938 
102*2023.979938 102*2023.124706 
102*2023.124706 102*2022.269474 
102*2022.269474 102*2021.414241 
102*2021.414241 102*2020.559009 
102*2020.559009 102*2019.703777 
102*2019.703777 102*2018.848545 
102*2018.848545 102*2017.993313 
102*2017.993313 102*2017.138080 
102*2017.138080 102*2016.282848 
102*2016.282848 102*2015.427616 
102*2015.427616 102*2014.572384 
102*2014.572384 102*2013.717152 
102*2013.717152 102*2012.861920 
102*2012.861920 102*2012.006687 
102*2012.006687 102*2011.151455 
102*2011.151455 102*2010.296223 
102*2010.296223 102*2009.440991 
102*2009.440991 102*2008.585759 
102*2008.585759 102*2007.730526 
102*2007.730526 102*2006.875294 
102*2006.875294 102*2006.020062 
102*2006.020062 102*2005.164830 
102*2005.164830 102*2004.309598 
102*2004.309598 102*2003.454366 
102*2003.454366 102*2002.599133 
102*2002.599133 102*2001.743901 
102*2001.743901 102*2000.888669 
102*2000.888669 102*2000.033437 
102*2000.033437 102*1999.178205 
102*1999.178205 102*1998.322972 
102*1998.322972 102*1997.467740 
102*1997.467740 102*1996.612508 
102*1996.612508 102*1995.757276 
102*1995.757276 102*1994.902044 
102*1994.902044 102*1994.046811 
102*2040.163653 102*2039.308421 
102*2039.308421 102*2038.453189 
102*2038.453189 102*2037.597956 
102*2037.597956 102*2036.742724 
102*2036.742724 102*2035.887492 
102*2035.887492 102*2035.032260 
102*2035.032260 102*2034.177028 
102*2034.177028 102*2033.321795 
102*2033.321795 102*2032.466563 
102*2032.466563 102*2031.611331 
102*2031.611331 102*2030.756099 
102*2030.756099 102*2029.900867 
102*2029.900867 102*2029.045634 
102*2029.045634 102*2028.190402 
102*2028.190402 102*2027.335170 
102*2027.335170 102*2026.479938 
102*2026.479938 102*2025.624706 
102*2025.624706 102*2024.769474 
102*2024.769474 102*2023.914241 
102*2023.914241 102*2023.059009 
102*2023.059009 102*2022.203777 
102*2022.203777 102*2021.348545 
102*2021.348545 102*2020.493313 
102*2020.493313 102*2019.638080 
102*2019.638080 102*2018.782848 
102*2018.782848 102*2017.927616 
102*2017.927616 102*2017.072384 
102*2017.072384 102*2016.217152 
102*2016.217152 102*2015.361920 
102*2015.361920 102*2014.506687 
102*2014.506687 102*2013.651455 
102*2013.651455 102*2012.796223 
102*2012.796223 102*2011.940991 
102*2011.940991 102*2011.085759 
102*2011.085759 102*2010.230526 
102*2010.230526 102*2009.375294 
102*2009.375294 102*2008.520062 
102*2008.520062 102*2007.664830 
102*2007.664830 102*2006.809598 
102*2006.809598 102*2005.954366 
102*2005.954366 102*2005.099133 
102*2005.099133 102*2004.243901 
102*2004.243901 102*2003.388669 
102*2003.388669 102*2002.533437 
102*2002.533437 102*2001.678205 
102*2001.678205 102*2000.822972 
102*2000.822972 102*1999.967740 
102*1999.967740 102*1999.112508 
102*1999.112508 102*1998.257276 
102*1998.257276 102*1997.402044 
102*1997.402044 102*1996.546811 
102*2040.163653 102*2039.308421 
102*2039.308421 102*2038.453189 
102*2038.453189 102*2037.597956 
102*2037.597956 102*2036.742724 
102*2036.742724 102*2035.887492 
102*2035.887492 102*2035.032260 
102*2035.032260 102*2034.177028 
102*2034.177028 102*2033.321795 
102*2033.321795 102*2032.466563 
102*2032.466563 102*2031.611331 
102*2031.611331 102*2030.756099 
102*2030.756099 102*2029.900867 
102*2029.900867 102*2029.045634 
102*2029.045634 102*2028.190402 
102*2028.190402 102*2027.335170 
102*2027.335170 102*2026.479938 
102*2026.479938 102*2025.624706 
102*2025.624706 102*2024.769474 
102*2024.769474 102*2023.914241 
102*2023.914241 102*2023.059009 
102*2023.059009 102*2022.203777 
102*2022.203777 102*2021.348545 
102*2021.348545 102*2020.493313 
102*2020.493313 102*2019.638080 
102*2019.638080 102*2018.782848 
102*2018.782848 102*2017.927616 
102*2017.927616 102*2017.072384 
102*2017.072384 102*2016.217152 
102*2016.217152 102*2015.361920 
102*2015.361920 102*2014.506687 
102*2014.506687 102*2013.651455 
102*2013.651455 102*2012.796223 
102*2012.796223 102*2011.940991 
102*2011.940991 102*2011.085759 
102*2011.085759 102*2010.230526 
102*2010.230526 102*2009.375294 
102*2009.375294 102*2008.520062 
102*2008.520062 102*2007.664830 
102*2007.664830 102*2006.809598 
102*2006.809598 102*2005.954366 
102*2005.954366 102*2005.099133 
102*2005.099133 102*2004.243901 
102*2004.243901 102*2003.388669 
102*2003.388669 102*2002.533437 
102*2002.533437 102*2001.678205 
102*2001.678205 102*2000.822972 
102*2000.822972 102*1999.967740 
102*1999.967740 102*1999.112508 
102*1999.112508 102*1998.257276 
102*1998.257276 102*1997.402044 
102*1997.402044 102*1996.546811 
102*2042.663653 102*2041.808421 
102*2041.808421 102*2040.953189 
102*2040.953189 102*2040.097956 
102*2040.097956 102*2039.242724 
102*2039.242724 102*2038.387492 
102*2038.387492 102*2037.532260 
102*2037.532260 102*2036.677028 
102*2036.677028 102*2035.821795 
102*2035.821795 102*2034.966563 
102*2034.966563 102*2034.111331 
102*2034.111331 102*2033.256099 
102*2033.256099 102*2032.400867 
102*2032.400867 102*2031.545634 
102*2031.545634 102*2030.690402 
102*2030.690402 102*2029.835170 
102*2029.835170 102*2028.979938 
102*2028.979938 102*2028.124706 
102*2028.124706 102*2027.269474 
102*2027.269474 102*2026.414241 
102*2026.414241 102*2025.559009 
102*2025.559009 102*2024.703777 
102*2024.703777 102*2023.848545 
102*2023.848545 102*2022.993313 
102*2022.993313 102*2022.138080 
102*2022.138080 102*2021.282848 
102*2021.282848 102*2020.427616 
102*2020.427616 102*2019.572384 
102*2019.572384 102*2018.717152 
102*2018.717152 102*2017.861920 
102*2017.861920 102*2017.006687 
102*2017.006687 102*2016.151455 
102*2016.151455 102*2015.296223 
102*2015.296223 102*2014.440991 
102*2014.440991 102*2013.585759 
102*2013.585759 102*2012.730526 
102*2012.730526 102*2011.875294 
102*2011.875294 102*2011.020062 
102*2011.020062 102*2010.164830 
102*2010.164830 102*2009.309598 
102*2009.309598 102*2008.454366 
102*2008.454366 102*2007.599133 
102*2007.599133 102*2006.743901 
102*2006.743901 102*2005.888669 
102*2005.888669 102*2005.033437 
102*2005.033437 102*2004.178205 
102*2004.178205 102*2003.322972 
102*2003.322972 102*2002.467740 
102*2002.467740 102*2001.612508 
102*2001.612508 102*2000.757276 
102*2000.757276 102*1999.902044 
102*1999.902044 102*1999.046811 
102*2042.663653 102*2041.808421 
102*2041.808421 102*2040.953189 
102*2040.953189 102*2040.097956 
102*2040.097956 102*2039.242724 
102*2039.242724 102*2038.387492 
102*2038.387492 102*2037.532260 
102*2037.532260 102*2036.677028 
102*2036.677028 102*2035.821795 
102*2035.821795 102*2034.966563 
102*2034.966563 102*2034.111331 
102*2034.111331 102*2033.256099 
102*2033.256099 102*2032.400867 
102*2032.400867 102*2031.545634 
102*2031.545634 102*2030.690402 
102*2030.690402 102*2029.835170 
102*2029.835170 102*2028.979938 
102*2028.979938 102*2028.124706 
102*2028.124706 102*2027.269474 
102*2027.269474 102*2026.414241 
102*2026.414241 102*2025.559009 
102*2025.559009 102*2024.703777 
102*2024.703777 102*2023.848545 
102*2023.848545 102*2022.993313 
102*2022.993313 102*2022.138080 
102*2022.138080 102*2021.282848 
102*2021.282848 102*2020.427616 
102*2020.427616 102*2019.572384 
102*2019.572384 102*2018.717152 
102*2018.717152 102*2017.861920 
102*2017.861920 102*2017.006687 
102*2017.006687 102*2016.151455 
102*2016.151455 102*2015.296223 
102*2015.296223 102*2014.440991 
102*2014.440991 102*2013.585759 
102*2013.585759 102*2012.730526 
102*2012.730526 102*2011.875294 
102*2011.875294 102*2011.020062 
102*2011.020062 102*2010.164830 
102*2010.164830 102*2009.309598 
102*2009.309598 102*2008.454366 
102*2008.454366 102*2007.599133 
102*2007.599133 102*2006.743901 
102*2006.743901 102*2005.888669 
102*2005.888669 102*2005.033437 
102*2005.033437 102*2004.178205 
102*2004.178205 102*2003.322972 
102*2003.322972 102*2002.467740 
102*2002.467740 102*2001.612508 
102*2001.612508 102*2000.757276 
102*2000.757276 102*1999.902044 
102*1999.902044 102*1999.046811 
102*2045.163653 102*2044.308421 
102*2044.308421 102*2043.453189 
102*2043.453189 102*2042.597956 
102*2042.597956 102*2041.742724 
102*2041.742724 102*2040.887492 
102*2040.887492 102*2040.032260 
102*2040.032260 102*2039.177028 
102*2039.177028 102*2038.321795 
102*2038.321795 102*2037.466563 
102*2037.466563 102*2036.611331 
102*2036.611331 102*2035.756099 
102*2035.756099 102*2034.900867 
102*2034.900867 102*2034.045634 
102*2034.045634 102*2033.190402 
102*2033.190402 102*2032.335170 
102*2032.335170 102*2031.479938 
102*2031.479938 102*2030.624706 
102*2030.624706 102*2029.769474 
102*2029.769474 102*2028.914241 
102*2028.914241 102*2028.059009 
102*2028.059009 102*2027.203777 
102*2027.203777 102*2026.348545 
102*2026.348545 102*2025.493313 
102*2025.493313 102*2024.638080 
102*2024.638080 102*2023.782848 
102*2023.782848 102*2022.927616 
102*2022.927616 102*2022.072384 
102*2022.072384 102*2021.217152 
102*2021.217152 102*2020.361920 
102*2020.361920 102*2019.506687 
102*2019.506687 102*2018.651455 
102*2018.651455 102*2017.796223 
102*2017.796223 102*2016.940991 
102*2016.940991 102*2016.085759 
102*2016.085759 102*2015.230526 
102*2015.230526 102*2014.375294 
102*2014.375294 102*2013.520062 
102*2013.520062 102*2012.664830 
102*2012.664830 102*2011.809598 
102*2011.809598 102*2010.954366 
102*2010.954366 102*2010.099133 