ZCORN
102*2031.452310 102*2030.265430 
102*2030.265430 102*2029.078551 
102*2029.078551 102*2027.891671 
102*2027.891671 102*2026.704791 
102*2026.704791 102*2025.517912 
102*2025.517912 102*2024.331032 
102*2024.331032 102*2023.144153 
102*2023.144153 102*2021.957273 
102*2021.957273 102*2020.770393 
102*2020.770393 102*2019.583514 
102*2019.583514 102*2018.396634 
102*2018.396634 102*2017.209754 
102*2017.209754 102*2016.022875 
102*2016.022875 102*2014.835995 
102*2014.835995 102*2013.649116 
102*2013.649116 102*2012.462236 
102*2012.462236 102*2011.275356 
102*2011.275356 102*2010.088477 
102*2010.088477 102*2008.901597 
102*2008.901597 102*2007.714718 
102*2007.714718 102*2006.527838 
102*2006.527838 102*2005.340958 
102*2005.340958 102*2004.154079 
102*2004.154079 102*2002.967199 
102*2002.967199 102*2001.780319 
102*2001.780319 102*2000.593440 
102*2000.593440 102*1999.406560 
102*1999.406560 102*1998.219681 
102*1998.219681 102*1997.032801 
102*1997.032801 102*1995.845921 
102*1995.845921 102*1994.659042 
102*1994.659042 102*1993.472162 
102*1993.472162 102*1992.285282 
102*1992.285282 102*1991.098403 
102*1991.098403 102*1989.911523 
102*1989.911523 102*1988.724644 
102*1988.724644 102*1987.537764 
102*1987.537764 102*1986.350884 
102*1986.350884 102*1985.164005 
102*1985.164005 102*1983.977125 
102*1983.977125 102*1982.790246 
102*1982.790246 102*1981.603366 
102*1981.603366 102*1980.416486 
102*1980.416486 102*1979.229607 
102*1979.229607 102*1978.042727 
102*1978.042727 102*1976.855847 
102*1976.855847 102*1975.668968 
102*1975.668968 102*1974.482088 
102*1974.482088 102*1973.295209 
102*1973.295209 102*1972.108329 
102*1972.108329 102*1970.921449 
102*2033.952310 102*2032.765430 
102*2032.765430 102*2031.578551 
102*2031.578551 102*2030.391671 
102*2030.391671 102*2029.204791 
102*2029.204791 102*2028.017912 
102*2028.017912 102*2026.831032 
102*2026.831032 102*2025.644153 
102*2025.644153 102*2024.457273 
102*2024.457273 102*2023.270393 
102*2023.270393 102*2022.083514 
102*2022.083514 102*2020.896634 
102*2020.896634 102*2019.709754 
102*2019.709754 102*2018.522875 
102*2018.522875 102*2017.335995 
102*2017.335995 102*2016.149116 
102*2016.149116 102*2014.962236 
102*2014.962236 102*2013.775356 
102*2013.775356 102*2012.588477 
102*2012.588477 102*2011.401597 
102*2011.401597 102*2010.214718 
102*2010.214718 102*2009.027838 
102*2009.027838 102*2007.840958 
102*2007.840958 102*2006.654079 
102*2006.654079 102*2005.467199 
102*2005.467199 102*2004.280319 
102*2004.280319 102*2003.093440 
102*2003.093440 102*2001.906560 
102*2001.906560 102*2000.719681 
102*2000.719681 102*1999.532801 
102*1999.532801 102*1998.345921 
102*1998.345921 102*1997.159042 
102*1997.159042 102*1995.972162 
102*1995.972162 102*1994.785282 
102*1994.785282 102*1993.598403 
102*1993.598403 102*1992.411523 
102*1992.411523 102*1991.224644 
102*1991.224644 102*1990.037764 
102*1990.037764 102*1988.850884 
102*1988.850884 102*1987.664005 
102*1987.664005 102*1986.477125 
102*1986.477125 102*1985.290246 
102*1985.290246 102*1984.103366 
102*1984.103366 102*1982.916486 
102*1982.916486 102*1981.729607 
102*1981.729607 102*1980.542727 
102*1980.542727 102*1979.355847 
102*1979.355847 102*1978.168968 
102*1978.168968 102*1976.982088 
102*1976.982088 102*1975.795209 
102*1975.795209 102*1974.608329 
102*1974.608329 102*1973.421449 
102*2033.952310 102*2032.765430 
102*2032.765430 102*2031.578551 
102*2031.578551 102*2030.391671 
102*2030.391671 102*2029.204791 
102*2029.204791 102*2028.017912 
102*2028.017912 102*2026.831032 
102*2026.831032 102*2025.644153 
102*2025.644153 102*2024.457273 
102*2024.457273 102*2023.270393 
102*2023.270393 102*2022.083514 
102*2022.083514 102*2020.896634 
102*2020.896634 102*2019.709754 
102*2019.709754 102*2018.522875 
102*2018.522875 102*2017.335995 
102*2017.335995 102*2016.149116 
102*2016.149116 102*2014.962236 
102*2014.962236 102*2013.775356 
102*2013.775356 102*2012.588477 
102*2012.588477 102*2011.401597 
102*2011.401597 102*2010.214718 
102*2010.214718 102*2009.027838 
102*2009.027838 102*2007.840958 
102*2007.840958 102*2006.654079 
102*2006.654079 102*2005.467199 
102*2005.467199 102*2004.280319 
102*2004.280319 102*2003.093440 
102*2003.093440 102*2001.906560 
102*2001.906560 102*2000.719681 
102*2000.719681 102*1999.532801 
102*1999.532801 102*1998.345921 
102*1998.345921 102*1997.159042 
102*1997.159042 102*1995.972162 
102*1995.972162 102*1994.785282 
102*1994.785282 102*1993.598403 
102*1993.598403 102*1992.411523 
102*1992.411523 102*1991.224644 
102*1991.224644 102*1990.037764 
102*1990.037764 102*1988.850884 
102*1988.850884 102*1987.664005 
102*1987.664005 102*1986.477125 
102*1986.477125 102*1985.290246 
102*1985.290246 102*1984.103366 
102*1984.103366 102*1982.916486 
102*1982.916486 102*1981.729607 
102*1981.729607 102*1980.542727 
102*1980.542727 102*1979.355847 
102*1979.355847 102*1978.168968 
102*1978.168968 102*1976.982088 
102*1976.982088 102*1975.795209 
102*1975.795209 102*1974.608329 
102*1974.608329 102*1973.421449 
102*2036.452310 102*2035.265430 
102*2035.265430 102*2034.078551 
102*2034.078551 102*2032.891671 
102*2032.891671 102*2031.704791 
102*2031.704791 102*2030.517912 
102*2030.517912 102*2029.331032 
102*2029.331032 102*2028.144153 
102*2028.144153 102*2026.957273 
102*2026.957273 102*2025.770393 
102*2025.770393 102*2024.583514 
102*2024.583514 102*2023.396634 
102*2023.396634 102*2022.209754 
102*2022.209754 102*2021.022875 
102*2021.022875 102*2019.835995 
102*2019.835995 102*2018.649116 
102*2018.649116 102*2017.462236 
102*2017.462236 102*2016.275356 
102*2016.275356 102*2015.088477 
102*2015.088477 102*2013.901597 
102*2013.901597 102*2012.714718 
102*2012.714718 102*2011.527838 
102*2011.527838 102*2010.340958 
102*2010.340958 102*2009.154079 
102*2009.154079 102*2007.967199 
102*2007.967199 102*2006.780319 
102*2006.780319 102*2005.593440 
102*2005.593440 102*2004.406560 
102*2004.406560 102*2003.219681 
102*2003.219681 102*2002.032801 
102*2002.032801 102*2000.845921 
102*2000.845921 102*1999.659042 
102*1999.659042 102*1998.472162 
102*1998.472162 102*1997.285282 
102*1997.285282 102*1996.098403 
102*1996.098403 102*1994.911523 
102*1994.911523 102*1993.724644 
102*1993.724644 102*1992.537764 
102*1992.537764 102*1991.350884 
102*1991.350884 102*1990.164005 
102*1990.164005 102*1988.977125 
102*1988.977125 102*1987.790246 
102*1987.790246 102*1986.603366 
102*1986.603366 102*1985.416486 
102*1985.416486 102*1984.229607 
102*1984.229607 102*1983.042727 
102*1983.042727 102*1981.855847 
102*1981.855847 102*1980.668968 
102*1980.668968 102*1979.482088 
102*1979.482088 102*1978.295209 
102*1978.295209 102*1977.108329 
102*1977.108329 102*1975.921449 
102*2036.452310 102*2035.265430 
102*2035.265430 102*2034.078551 
102*2034.078551 102*2032.891671 
102*2032.891671 102*2031.704791 
102*2031.704791 102*2030.517912 
102*2030.517912 102*2029.331032 
102*2029.331032 102*2028.144153 
102*2028.144153 102*2026.957273 
102*2026.957273 102*2025.770393 
102*2025.770393 102*2024.583514 
102*2024.583514 102*2023.396634 
102*2023.396634 102*2022.209754 
102*2022.209754 102*2021.022875 
102*2021.022875 102*2019.835995 
102*2019.835995 102*2018.649116 
102*2018.649116 102*2017.462236 
102*2017.462236 102*2016.275356 
102*2016.275356 102*2015.088477 
102*2015.088477 102*2013.901597 
102*2013.901597 102*2012.714718 
102*2012.714718 102*2011.527838 
102*2011.527838 102*2010.340958 
102*2010.340958 102*2009.154079 
102*2009.154079 102*2007.967199 
102*2007.967199 102*2006.780319 
102*2006.780319 102*2005.593440 
102*2005.593440 102*2004.406560 
102*2004.406560 102*2003.219681 
102*2003.219681 102*2002.032801 
102*2002.032801 102*2000.845921 
102*2000.845921 102*1999.659042 
102*1999.659042 102*1998.472162 
102*1998.472162 102*1997.285282 
102*1997.285282 102*1996.098403 
102*1996.098403 102*1994.911523 
102*1994.911523 102*1993.724644 
102*1993.724644 102*1992.537764 
102*1992.537764 102*1991.350884 
102*1991.350884 102*1990.164005 
102*1990.164005 102*1988.977125 
102*1988.977125 102*1987.790246 
102*1987.790246 102*1986.603366 
102*1986.603366 102*1985.416486 
102*1985.416486 102*1984.229607 
102*1984.229607 102*1983.042727 
102*1983.042727 102*1981.855847 
102*1981.855847 102*1980.668968 
102*1980.668968 102*1979.482088 
102*1979.482088 102*1978.295209 
102*1978.295209 102*1977.108329 
102*1977.108329 102*1975.921449 
102*2038.952310 102*2037.765430 
102*2037.765430 102*2036.578551 
102*2036.578551 102*2035.391671 
102*2035.391671 102*2034.204791 
102*2034.204791 102*2033.017912 
102*2033.017912 102*2031.831032 
102*2031.831032 102*2030.644153 
102*2030.644153 102*2029.457273 
102*2029.457273 102*2028.270393 
102*2028.270393 102*2027.083514 
102*2027.083514 102*2025.896634 
102*2025.896634 102*2024.709754 
102*2024.709754 102*2023.522875 
102*2023.522875 102*2022.335995 
102*2022.335995 102*2021.149116 
102*2021.149116 102*2019.962236 
102*2019.962236 102*2018.775356 
102*2018.775356 102*2017.588477 
102*2017.588477 102*2016.401597 
102*2016.401597 102*2015.214718 
102*2015.214718 102*2014.027838 
102*2014.027838 102*2012.840958 
102*2012.840958 102*2011.654079 
102*2011.654079 102*2010.467199 
102*2010.467199 102*2009.280319 
102*2009.280319 102*2008.093440 
102*2008.093440 102*2006.906560 
102*2006.906560 102*2005.719681 
102*2005.719681 102*2004.532801 
102*2004.532801 102*2003.345921 
102*2003.345921 102*2002.159042 
102*2002.159042 102*2000.972162 
102*2000.972162 102*1999.785282 
102*1999.785282 102*1998.598403 
102*1998.598403 102*1997.411523 
102*1997.411523 102*1996.224644 
102*1996.224644 102*1995.037764 
102*1995.037764 102*1993.850884 
102*1993.850884 102*1992.664005 
102*1992.664005 102*1991.477125 
102*1991.477125 102*1990.290246 
102*1990.290246 102*1989.103366 
102*1989.103366 102*1987.916486 
102*1987.916486 102*1986.729607 
102*1986.729607 102*1985.542727 
102*1985.542727 102*1984.355847 
102*1984.355847 102*1983.168968 
102*1983.168968 102*1981.982088 
102*1981.982088 102*1980.795209 
102*1980.795209 102*1979.608329 
102*1979.608329 102*1978.421449 
102*2038.952310 102*2037.765430 
102*2037.765430 102*2036.578551 
102*2036.578551 102*2035.391671 
102*2035.391671 102*2034.204791 
102*2034.204791 102*2033.017912 
102*2033.017912 102*2031.831032 
102*2031.831032 102*2030.644153 
102*2030.644153 102*2029.457273 
102*2029.457273 102*2028.270393 
102*2028.270393 102*2027.083514 
102*2027.083514 102*2025.896634 
102*2025.896634 102*2024.709754 
102*2024.709754 102*2023.522875 
102*2023.522875 102*2022.335995 
102*2022.335995 102*2021.149116 
102*2021.149116 102*2019.962236 
102*2019.962236 102*2018.775356 
102*2018.775356 102*2017.588477 
102*2017.588477 102*2016.401597 
102*2016.401597 102*2015.214718 
102*2015.214718 102*2014.027838 
102*2014.027838 102*2012.840958 
102*2012.840958 102*2011.654079 
102*2011.654079 102*2010.467199 
102*2010.467199 102*2009.280319 
102*2009.280319 102*2008.093440 
102*2008.093440 102*2006.906560 
102*2006.906560 102*2005.719681 
102*2005.719681 102*2004.532801 
102*2004.532801 102*2003.345921 
102*2003.345921 102*2002.159042 
102*2002.159042 102*2000.972162 
102*2000.972162 102*1999.785282 
102*1999.785282 102*1998.598403 
102*1998.598403 102*1997.411523 
102*1997.411523 102*1996.224644 
102*1996.224644 102*1995.037764 
102*1995.037764 102*1993.850884 
102*1993.850884 102*1992.664005 
102*1992.664005 102*1991.477125 
102*1991.477125 102*1990.290246 
102*1990.290246 102*1989.103366 
102*1989.103366 102*1987.916486 
102*1987.916486 102*1986.729607 
102*1986.729607 102*1985.542727 
102*1985.542727 102*1984.355847 
102*1984.355847 102*1983.168968 
102*1983.168968 102*1981.982088 
102*1981.982088 102*1980.795209 
102*1980.795209 102*1979.608329 
102*1979.608329 102*1978.421449 
102*2041.452310 102*2040.265430 
102*2040.265430 102*2039.078551 
102*2039.078551 102*2037.891671 
102*2037.891671 102*2036.704791 
102*2036.704791 102*2035.517912 
102*2035.517912 102*2034.331032 
102*2034.331032 102*2033.144153 
102*2033.144153 102*2031.957273 
102*2031.957273 102*2030.770393 
102*2030.770393 102*2029.583514 
102*2029.583514 102*2028.396634 
102*2028.396634 102*2027.209754 
102*2027.209754 102*2026.022875 
102*2026.022875 102*2024.835995 
102*2024.835995 102*2023.649116 
102*2023.649116 102*2022.462236 
102*2022.462236 102*2021.275356 
102*2021.275356 102*2020.088477 
102*2020.088477 102*2018.901597 
102*2018.901597 102*2017.714718 
102*2017.714718 102*2016.527838 
102*2016.527838 102*2015.340958 
102*2015.340958 102*2014.154079 
102*2014.154079 102*2012.967199 
102*2012.967199 102*2011.780319 
102*2011.780319 102*2010.593440 
102*2010.593440 102*2009.406560 
102*2009.406560 102*2008.219681 
102*2008.219681 102*2007.032801 
102*2007.032801 102*2005.845921 
102*2005.845921 102*2004.659042 
102*2004.659042 102*2003.472162 
102*2003.472162 102*2002.285282 
102*2002.285282 102*2001.098403 
102*2001.098403 102*1999.911523 
102*1999.911523 102*1998.724644 
102*1998.724644 102*1997.537764 
102*1997.537764 102*1996.350884 
102*1996.350884 102*1995.164005 
102*1995.164005 102*1993.977125 
102*1993.977125 102*1992.790246 
102*1992.790246 102*1991.603366 
102*1991.603366 102*1990.416486 
102*1990.416486 102*1989.229607 
102*1989.229607 102*1988.042727 
102*1988.042727 102*1986.855847 
102*1986.855847 102*1985.668968 
102*1985.668968 102*1984.482088 
102*1984.482088 102*1983.295209 
102*1983.295209 102*1982.108329 
102*1982.108329 102*1980.921449 
102*2041.452310 102*2040.265430 
102*2040.265430 102*2039.078551 
102*2039.078551 102*2037.891671 
102*2037.891671 102*2036.704791 
102*2036.704791 102*2035.517912 
102*2035.517912 102*2034.331032 
102*2034.331032 102*2033.144153 
102*2033.144153 102*2031.957273 
102*2031.957273 102*2030.770393 
102*2030.770393 102*2029.583514 
102*2029.583514 102*2028.396634 
102*2028.396634 102*2027.209754 
102*2027.209754 102*2026.022875 
102*2026.022875 102*2024.835995 
102*2024.835995 102*2023.649116 
102*2023.649116 102*2022.462236 
102*2022.462236 102*2021.275356 
102*2021.275356 102*2020.088477 
102*2020.088477 102*2018.901597 
102*2018.901597 102*2017.714718 
102*2017.714718 102*2016.527838 
102*2016.527838 102*2015.340958 
102*2015.340958 102*2014.154079 
102*2014.154079 102*2012.967199 
102*2012.967199 102*2011.780319 
102*2011.780319 102*2010.593440 
102*2010.593440 102*2009.406560 
102*2009.406560 102*2008.219681 
102*2008.219681 102*2007.032801 
102*2007.032801 102*2005.845921 
102*2005.845921 102*2004.659042 
102*2004.659042 102*2003.472162 
102*2003.472162 102*2002.285282 
102*2002.285282 102*2001.098403 
102*2001.098403 102*1999.911523 
102*1999.911523 102*1998.724644 
102*1998.724644 102*1997.537764 
102*1997.537764 102*1996.350884 
102*1996.350884 102*1995.164005 
102*1995.164005 102*1993.977125 
102*1993.977125 102*1992.790246 
102*1992.790246 102*1991.603366 
102*1991.603366 102*1990.416486 
102*1990.416486 102*1989.229607 
102*1989.229607 102*1988.042727 
102*1988.042727 102*1986.855847 
102*1986.855847 102*1985.668968 
102*1985.668968 102*1984.482088 
102*1984.482088 102*1983.295209 
102*1983.295209 102*1982.108329 
102*1982.108329 102*1980.921449 
102*2043.952310 102*2042.765430 
102*2042.765430 102*2041.578551 
102*2041.578551 102*2040.391671 
102*2040.391671 102*2039.204791 
102*2039.204791 102*2038.017912 
102*2038.017912 102*2036.831032 
102*2036.831032 102*2035.644153 
102*2035.644153 102*2034.457273 
102*2034.457273 102*2033.270393 
102*2033.270393 102*2032.083514 
102*2032.083514 102*2030.896634 
102*2030.896634 102*2029.709754 
102*2029.709754 102*2028.522875 
102*2028.522875 102*2027.335995 
102*2027.335995 102*2026.149116 
102*2026.149116 102*2024.962236 
102*2024.962236 102*2023.775356 
102*2023.775356 102*2022.588477 
102*2022.588477 102*2021.401597 
102*2021.401597 102*2020.214718 
102*2020.214718 102*2019.027838 
102*2019.027838 102*2017.840958 
102*2017.840958 102*2016.654079 
102*2016.654079 102*2015.467199 
102*2015.467199 102*2014.280319 
102*2014.280319 102*2013.093440 
102*2013.093440 102*2011.906560 
102*2011.906560 102*2010.719681 
102*2010.719681 102*2009.532801 
102*2009.532801 102*2008.345921 
102*2008.345921 102*2007.159042 
102*2007.159042 102*2005.972162 
102*2005.972162 102*2004.785282 
102*2004.785282 102*2003.598403 
102*2003.598403 102*2002.411523 
102*2002.411523 102*2001.224644 
102*2001.224644 102*2000.037764 
102*2000.037764 102*1998.850884 
102*1998.850884 102*1997.664005 
102*1997.664005 102*1996.477125 
102*1996.477125 102*1995.290246 
102*1995.290246 102*1994.103366 
102*1994.103366 102*1992.916486 
102*1992.916486 102*1991.729607 
102*1991.729607 102*1990.542727 
102*1990.542727 102*1989.355847 
102*1989.355847 102*1988.168968 
102*1988.168968 102*1986.982088 
102*1986.982088 102*1985.795209 
102*1985.795209 102*1984.608329 
102*1984.608329 102*1983.421449 
102*2043.952310 102*2042.765430 
102*2042.765430 102*2041.578551 
102*2041.578551 102*2040.391671 
102*2040.391671 102*2039.204791 
102*2039.204791 102*2038.017912 
102*2038.017912 102*2036.831032 
102*2036.831032 102*2035.644153 
102*2035.644153 102*2034.457273 
102*2034.457273 102*2033.270393 
102*2033.270393 102*2032.083514 
102*2032.083514 102*2030.896634 
102*2030.896634 102*2029.709754 
102*2029.709754 102*2028.522875 
102*2028.522875 102*2027.335995 
102*2027.335995 102*2026.149116 
102*2026.149116 102*2024.962236 
102*2024.962236 102*2023.775356 
102*2023.775356 102*2022.588477 
102*2022.588477 102*2021.401597 
102*2021.401597 102*2020.214718 
102*2020.214718 102*2019.027838 
102*2019.027838 102*2017.840958 
102*2017.840958 102*2016.654079 
102*2016.654079 102*2015.467199 
102*2015.467199 102*2014.280319 
102*2014.280319 102*2013.093440 
102*2013.093440 102*2011.906560 
102*2011.906560 102*2010.719681 
102*2010.719681 102*2009.532801 
102*2009.532801 102*2008.345921 
102*2008.345921 102*2007.159042 
102*2007.159042 102*2005.972162 
102*2005.972162 102*2004.785282 
102*2004.785282 102*2003.598403 
102*2003.598403 102*2002.411523 
102*2002.411523 102*2001.224644 
102*2001.224644 102*2000.037764 
102*2000.037764 102*1998.850884 
102*1998.850884 102*1997.664005 
102*1997.664005 102*1996.477125 
102*1996.477125 102*1995.290246 
102*1995.290246 102*1994.103366 
102*1994.103366 102*1992.916486 
102*1992.916486 102*1991.729607 
102*1991.729607 102*1990.542727 
102*1990.542727 102*1989.355847 
102*1989.355847 102*1988.168968 
102*1988.168968 102*1986.982088 
102*1986.982088 102*1985.795209 
102*1985.795209 102*1984.608329 
102*1984.608329 102*1983.421449 
102*2046.452310 102*2045.265430 
102*2045.265430 102*2044.078551 
102*2044.078551 102*2042.891671 
102*2042.891671 102*2041.704791 
102*2041.704791 102*2040.517912 
102*2040.517912 102*2039.331032 
102*2039.331032 102*2038.144153 
102*2038.144153 102*2036.957273 
102*2036.957273 102*2035.770393 
102*2035.770393 102*2034.583514 
102*2034.583514 102*2033.396634 
102*2033.396634 102*2032.209754 
102*2032.209754 102*2031.022875 
102*2031.022875 102*2029.835995 
102*2029.835995 102*2028.649116 
102*2028.649116 102*2027.462236 
102*2027.462236 102*2026.275356 
102*2026.275356 102*2025.088477 
102*2025.088477 102*2023.901597 
102*2023.901597 102*2022.714718 
102*2022.714718 102*2021.527838 
102*2021.527838 102*2020.340958 
102*2020.340958 102*2019.154079 
102*2019.154079 102*2017.967199 
102*2017.967199 102*2016.780319 
102*2016.780319 102*2015.593440 
102*2015.593440 102*2014.406560 
102*2014.406560 102*2013.219681 
102*2013.219681 102*2012.032801 
102*2012.032801 102*2010.845921 
102*2010.845921 102*2009.659042 
102*2009.659042 102*2008.472162 
102*2008.472162 102*2007.285282 
102*2007.285282 102*2006.098403 
102*2006.098403 102*2004.911523 
102*2004.911523 102*2003.724644 
102*2003.724644 102*2002.537764 
102*2002.537764 102*2001.350884 
102*2001.350884 102*2000.164005 
102*2000.164005 102*1998.977125 
102*1998.977125 102*1997.790246 
102*1997.790246 102*1996.603366 
102*1996.603366 102*1995.416486 
102*1995.416486 102*1994.229607 
102*1994.229607 102*1993.042727 
102*1993.042727 102*1991.855847 
102*1991.855847 102*1990.668968 
102*1990.668968 102*1989.482088 
102*1989.482088 102*1988.295209 
102*1988.295209 102*1987.108329 
102*1987.108329 102*1985.921449 
102*2046.452310 102*2045.265430 
102*2045.265430 102*2044.078551 
102*2044.078551 102*2042.891671 
102*2042.891671 102*2041.704791 
102*2041.704791 102*2040.517912 
102*2040.517912 102*2039.331032 
102*2039.331032 102*2038.144153 
102*2038.144153 102*2036.957273 
102*2036.957273 102*2035.770393 
102*2035.770393 102*2034.583514 
102*2034.583514 102*2033.396634 
102*2033.396634 102*2032.209754 
102*2032.209754 102*2031.022875 
102*2031.022875 102*2029.835995 
102*2029.835995 102*2028.649116 
102*2028.649116 102*2027.462236 
102*2027.462236 102*2026.275356 
102*2026.275356 102*2025.088477 
102*2025.088477 102*2023.901597 
102*2023.901597 102*2022.714718 
102*2022.714718 102*2021.527838 
102*2021.527838 102*2020.340958 
102*2020.340958 102*2019.154079 
102*2019.154079 102*2017.967199 
102*2017.967199 102*2016.780319 
102*2016.780319 102*2015.593440 
102*2015.593440 102*2014.406560 
102*2014.406560 102*2013.219681 
102*2013.219681 102*2012.032801 
102*2012.032801 102*2010.845921 
102*2010.845921 102*2009.659042 
102*2009.659042 102*2008.472162 
102*2008.472162 102*2007.285282 
102*2007.285282 102*2006.098403 
102*2006.098403 102*2004.911523 
102*2004.911523 102*2003.724644 
102*2003.724644 102*2002.537764 
102*2002.537764 102*2001.350884 
102*2001.350884 102*2000.164005 
102*2000.164005 102*1998.977125 
102*1998.977125 102*1997.790246 
102*1997.790246 102*1996.603366 
102*1996.603366 102*1995.416486 
102*1995.416486 102*1994.229607 
102*1994.229607 102*1993.042727 
102*1993.042727 102*1991.855847 
102*1991.855847 102*1990.668968 
102*1990.668968 102*1989.482088 
102*1989.482088 102*1988.295209 
102*1988.295209 102*1987.108329 
102*1987.108329 102*1985.921449 
102*2048.952310 102*2047.765430 
102*2047.765430 102*2046.578551 
102*2046.578551 102*2045.391671 
102*2045.391671 102*2044.204791 
102*2044.204791 102*2043.017912 
102*2043.017912 102*2041.831032 
102*2041.831032 102*2040.644153 
102*2040.644153 102*2039.457273 
102*2039.457273 102*2038.270393 
102*2038.270393 102*2037.083514 
102*2037.083514 102*2035.896634 
102*2035.896634 102*2034.709754 
102*2034.709754 102*2033.522875 
102*2033.522875 102*2032.335995 
102*2032.335995 102*2031.149116 
102*2031.149116 102*2029.962236 
102*2029.962236 102*2028.775356 
102*2028.775356 102*2027.588477 
102*2027.588477 102*2026.401597 
102*2026.401597 102*2025.214718 
102*2025.214718 102*2024.027838 
102*2024.027838 102*2022.840958 
102*2022.840958 102*2021.654079 
102*2021.654079 102*2020.467199 
102*2020.467199 102*2019.280319 
102*2019.280319 102*2018.093440 
102*2018.093440 102*2016.906560 
102*2016.906560 102*2015.719681 
102*2015.719681 102*2014.532801 
102*2014.532801 102*2013.345921 
102*2013.345921 102*2012.159042 
102*2012.159042 102*2010.972162 
102*2010.972162 102*2009.785282 
102*2009.785282 102*2008.598403 
102*2008.598403 102*2007.411523 
102*2007.411523 102*2006.224644 
102*2006.224644 102*2005.037764 
102*2005.037764 102*2003.850884 
102*2003.850884 102*2002.664005 
102*2002.664005 102*2001.477125 
102*2001.477125 102*2000.290246 
102*2000.290246 102*1999.103366 
102*1999.103366 102*1997.916486 
102*1997.916486 102*1996.729607 
102*1996.729607 102*1995.542727 
102*1995.542727 102*1994.355847 
102*1994.355847 102*1993.168968 
102*1993.168968 102*1991.982088 
102*1991.982088 102*1990.795209 
102*1990.795209 102*1989.608329 
102*1989.608329 102*1988.421449 
102*2048.952310 102*2047.765430 
102*2047.765430 102*2046.578551 
102*2046.578551 102*2045.391671 
102*2045.391671 102*2044.204791 
102*2044.204791 102*2043.017912 
102*2043.017912 102*2041.831032 
102*2041.831032 102*2040.644153 
102*2040.644153 102*2039.457273 
102*2039.457273 102*2038.270393 
102*2038.270393 102*2037.083514 
102*2037.083514 102*2035.896634 
102*2035.896634 102*2034.709754 
102*2034.709754 102*2033.522875 
102*2033.522875 102*2032.335995 
102*2032.335995 102*2031.149116 
102*2031.149116 102*2029.962236 
102*2029.962236 102*2028.775356 
102*2028.775356 102*2027.588477 
102*2027.588477 102*2026.401597 
102*2026.401597 102*2025.214718 
102*2025.214718 102*2024.027838 
102*2024.027838 102*2022.840958 
102*2022.840958 102*2021.654079 
102*2021.654079 102*2020.467199 
102*2020.467199 102*2019.280319 
102*2019.280319 102*2018.093440 
102*2018.093440 102*2016.906560 
102*2016.906560 102*2015.719681 
102*2015.719681 102*2014.532801 
102*2014.532801 102*2013.345921 
102*2013.345921 102*2012.159042 
102*2012.159042 102*2010.972162 
102*2010.972162 102*2009.785282 
102*2009.785282 102*2008.598403 
102*2008.598403 102*2007.411523 
102*2007.411523 102*2006.224644 
102*2006.224644 102*2005.037764 
102*2005.037764 102*2003.850884 
102*2003.850884 102*2002.664005 
102*2002.664005 102*2001.477125 
102*2001.477125 102*2000.290246 
102*2000.290246 102*1999.103366 
102*1999.103366 102*1997.916486 
102*1997.916486 102*1996.729607 
102*1996.729607 102*1995.542727 
102*1995.542727 102*1994.355847 
102*1994.355847 102*1993.168968 
102*1993.168968 102*1991.982088 
102*1991.982088 102*1990.795209 
102*1990.795209 102*1989.608329 
102*1989.608329 102*1988.421449 
102*2051.452310 102*2050.265430 
102*2050.265430 102*2049.078551 
102*2049.078551 102*2047.891671 
102*2047.891671 102*2046.704791 
102*2046.704791 102*2045.517912 
102*2045.517912 102*2044.331032 
102*2044.331032 102*2043.144153 
102*2043.144153 102*2041.957273 
102*2041.957273 102*2040.770393 
102*2040.770393 102*2039.583514 
102*2039.583514 102*2038.396634 
102*2038.396634 102*2037.209754 
102*2037.209754 102*2036.022875 
102*2036.022875 102*2034.835995 
102*2034.835995 102*2033.649116 
102*2033.649116 102*2032.462236 
102*2032.462236 102*2031.275356 
102*2031.275356 102*2030.088477 
102*2030.088477 102*2028.901597 
102*2028.901597 102*2027.714718 
102*2027.714718 102*2026.527838 
102*2026.527838 102*2025.340958 
102*2025.340958 102*2024.154079 
102*2024.154079 102*2022.967199 
102*2022.967199 102*2021.780319 
102*2021.780319 102*2020.593440 
102*2020.593440 102*2019.406560 
102*2019.406560 102*2018.219681 
102*2018.219681 102*2017.032801 
102*2017.032801 102*2015.845921 
102*2015.845921 102*2014.659042 
102*2014.659042 102*2013.472162 
102*2013.472162 102*2012.285282 
102*2012.285282 102*2011.098403 
102*2011.098403 102*2009.911523 
102*2009.911523 102*2008.724644 
102*2008.724644 102*2007.537764 
102*2007.537764 102*2006.350884 
102*2006.350884 102*2005.164005 
102*2005.164005 102*2003.977125 
102*2003.977125 102*2002.790246 
102*2002.790246 102*2001.603366 
102*2001.603366 102*2000.416486 
102*2000.416486 102*1999.229607 
102*1999.229607 102*1998.042727 
102*1998.042727 102*1996.855847 
102*1996.855847 102*1995.668968 
102*1995.668968 102*1994.482088 
102*1994.482088 102*1993.295209 
102*1993.295209 102*1992.108329 
102*1992.108329 102*1990.921449 
102*2051.452310 102*2050.265430 
102*2050.265430 102*2049.078551 
102*2049.078551 102*2047.891671 
102*2047.891671 102*2046.704791 
102*2046.704791 102*2045.517912 
102*2045.517912 102*2044.331032 
102*2044.331032 102*2043.144153 
102*2043.144153 102*2041.957273 
102*2041.957273 102*2040.770393 
102*2040.770393 102*2039.583514 
102*2039.583514 102*2038.396634 
102*2038.396634 102*2037.209754 
102*2037.209754 102*2036.022875 
102*2036.022875 102*2034.835995 
102*2034.835995 102*2033.649116 
102*2033.649116 102*2032.462236 
102*2032.462236 102*2031.275356 
102*2031.275356 102*2030.088477 
102*2030.088477 102*2028.901597 
102*2028.901597 102*2027.714718 
102*2027.714718 102*2026.527838 
102*2026.527838 102*2025.340958 
102*2025.340958 102*2024.154079 
102*2024.154079 102*2022.967199 
102*2022.967199 102*2021.780319 
102*2021.780319 102*2020.593440 
102*2020.593440 102*2019.406560 
102*2019.406560 102*2018.219681 
102*2018.219681 102*2017.032801 
102*2017.032801 102*2015.845921 
102*2015.845921 102*2014.659042 
102*2014.659042 102*2013.472162 
102*2013.472162 102*2012.285282 
102*2012.285282 102*2011.098403 
102*2011.098403 102*2009.911523 
102*2009.911523 102*2008.724644 
102*2008.724644 102*2007.537764 
102*2007.537764 102*2006.350884 
102*2006.350884 102*2005.164005 
102*2005.164005 102*2003.977125 
102*2003.977125 102*2002.790246 
102*2002.790246 102*2001.603366 
102*2001.603366 102*2000.416486 
102*2000.416486 102*1999.229607 
102*1999.229607 102*1998.042727 
102*1998.042727 102*1996.855847 
102*1996.855847 102*1995.668968 
102*1995.668968 102*1994.482088 
102*1994.482088 102*1993.295209 
102*1993.295209 102*1992.108329 
102*1992.108329 102*1990.921449 
102*2053.952310 102*2052.765430 
102*2052.765430 102*2051.578551 
102*2051.578551 102*2050.391671 
102*2050.391671 102*2049.204791 
102*2049.204791 102*2048.017912 
102*2048.017912 102*2046.831032 
102*2046.831032 102*2045.644153 
102*2045.644153 102*2044.457273 
102*2044.457273 102*2043.270393 
102*2043.270393 102*2042.083514 
102*2042.083514 102*2040.896634 
102*2040.896634 102*2039.709754 
102*2039.709754 102*2038.522875 
102*2038.522875 102*2037.335995 
102*2037.335995 102*2036.149116 
102*2036.149116 102*2034.962236 
102*2034.962236 102*2033.775356 
102*2033.775356 102*2032.588477 
102*2032.588477 102*2031.401597 
102*2031.401597 102*2030.214718 
102*2030.214718 102*2029.027838 
102*2029.027838 102*2027.840958 
102*2027.840958 102*2026.654079 
102*2026.654079 102*2025.467199 
102*2025.467199 102*2024.280319 
102*2024.280319 102*2023.093440 
102*2023.093440 102*2021.906560 
102*2021.906560 102*2020.719681 
102*2020.719681 102*2019.532801 
102*2019.532801 102*2018.345921 
102*2018.345921 102*2017.159042 
102*2017.159042 102*2015.972162 
102*2015.972162 102*2014.785282 
102*2014.785282 102*2013.598403 
102*2013.598403 102*2012.411523 
102*2012.411523 102*2011.224644 
102*2011.224644 102*2010.037764 
102*2010.037764 102*2008.850884 
102*2008.850884 102*2007.664005 
102*2007.664005 102*2006.477125 
102*2006.477125 102*2005.290246 