ZCORN
102*2086.057512 102*2082.810058 
102*2082.810058 102*2079.562605 
102*2079.562605 102*2076.315152 
102*2076.315152 102*2073.067699 
102*2073.067699 102*2069.820245 
102*2069.820245 102*2066.572792 
102*2066.572792 102*2063.325339 
102*2063.325339 102*2060.077885 
102*2060.077885 102*2056.830432 
102*2056.830432 102*2053.582979 
102*2053.582979 102*2050.335526 
102*2050.335526 102*2047.088072 
102*2047.088072 102*2043.840619 
102*2043.840619 102*2040.593166 
102*2040.593166 102*2037.345713 
102*2037.345713 102*2034.098259 
102*2034.098259 102*2030.850806 
102*2030.850806 102*2027.603353 
102*2027.603353 102*2024.355900 
102*2024.355900 102*2021.108446 
102*2021.108446 102*2017.860993 
102*2017.860993 102*2014.613540 
102*2014.613540 102*2011.366086 
102*2011.366086 102*2008.118633 
102*2008.118633 102*2004.871180 
102*2004.871180 102*2001.623727 
102*2001.623727 102*1998.376273 
102*1998.376273 102*1995.128820 
102*1995.128820 102*1991.881367 
102*1991.881367 102*1988.633914 
102*1988.633914 102*1985.386460 
102*1985.386460 102*1982.139007 
102*1982.139007 102*1978.891554 
102*1978.891554 102*1975.644100 
102*1975.644100 102*1972.396647 
102*1972.396647 102*1969.149194 
102*1969.149194 102*1965.901741 
102*1965.901741 102*1962.654287 
102*1962.654287 102*1959.406834 
102*1959.406834 102*1956.159381 
102*1956.159381 102*1952.911928 
102*1952.911928 102*1949.664474 
102*1949.664474 102*1946.417021 
102*1946.417021 102*1943.169568 
102*1943.169568 102*1939.922115 
102*1939.922115 102*1936.674661 
102*1936.674661 102*1933.427208 
102*1933.427208 102*1930.179755 
102*1930.179755 102*1926.932301 
102*1926.932301 102*1923.684848 
102*1923.684848 102*1920.437395 
102*2088.557512 102*2085.310058 
102*2085.310058 102*2082.062605 
102*2082.062605 102*2078.815152 
102*2078.815152 102*2075.567699 
102*2075.567699 102*2072.320245 
102*2072.320245 102*2069.072792 
102*2069.072792 102*2065.825339 
102*2065.825339 102*2062.577885 
102*2062.577885 102*2059.330432 
102*2059.330432 102*2056.082979 
102*2056.082979 102*2052.835526 
102*2052.835526 102*2049.588072 
102*2049.588072 102*2046.340619 
102*2046.340619 102*2043.093166 
102*2043.093166 102*2039.845713 
102*2039.845713 102*2036.598259 
102*2036.598259 102*2033.350806 
102*2033.350806 102*2030.103353 
102*2030.103353 102*2026.855900 
102*2026.855900 102*2023.608446 
102*2023.608446 102*2020.360993 
102*2020.360993 102*2017.113540 
102*2017.113540 102*2013.866086 
102*2013.866086 102*2010.618633 
102*2010.618633 102*2007.371180 
102*2007.371180 102*2004.123727 
102*2004.123727 102*2000.876273 
102*2000.876273 102*1997.628820 
102*1997.628820 102*1994.381367 
102*1994.381367 102*1991.133914 
102*1991.133914 102*1987.886460 
102*1987.886460 102*1984.639007 
102*1984.639007 102*1981.391554 
102*1981.391554 102*1978.144100 
102*1978.144100 102*1974.896647 
102*1974.896647 102*1971.649194 
102*1971.649194 102*1968.401741 
102*1968.401741 102*1965.154287 
102*1965.154287 102*1961.906834 
102*1961.906834 102*1958.659381 
102*1958.659381 102*1955.411928 
102*1955.411928 102*1952.164474 
102*1952.164474 102*1948.917021 
102*1948.917021 102*1945.669568 
102*1945.669568 102*1942.422115 
102*1942.422115 102*1939.174661 
102*1939.174661 102*1935.927208 
102*1935.927208 102*1932.679755 
102*1932.679755 102*1929.432301 
102*1929.432301 102*1926.184848 
102*1926.184848 102*1922.937395 
102*2088.557512 102*2085.310058 
102*2085.310058 102*2082.062605 
102*2082.062605 102*2078.815152 
102*2078.815152 102*2075.567699 
102*2075.567699 102*2072.320245 
102*2072.320245 102*2069.072792 
102*2069.072792 102*2065.825339 
102*2065.825339 102*2062.577885 
102*2062.577885 102*2059.330432 
102*2059.330432 102*2056.082979 
102*2056.082979 102*2052.835526 
102*2052.835526 102*2049.588072 
102*2049.588072 102*2046.340619 
102*2046.340619 102*2043.093166 
102*2043.093166 102*2039.845713 
102*2039.845713 102*2036.598259 
102*2036.598259 102*2033.350806 
102*2033.350806 102*2030.103353 
102*2030.103353 102*2026.855900 
102*2026.855900 102*2023.608446 
102*2023.608446 102*2020.360993 
102*2020.360993 102*2017.113540 
102*2017.113540 102*2013.866086 
102*2013.866086 102*2010.618633 
102*2010.618633 102*2007.371180 
102*2007.371180 102*2004.123727 
102*2004.123727 102*2000.876273 
102*2000.876273 102*1997.628820 
102*1997.628820 102*1994.381367 
102*1994.381367 102*1991.133914 
102*1991.133914 102*1987.886460 
102*1987.886460 102*1984.639007 
102*1984.639007 102*1981.391554 
102*1981.391554 102*1978.144100 
102*1978.144100 102*1974.896647 
102*1974.896647 102*1971.649194 
102*1971.649194 102*1968.401741 
102*1968.401741 102*1965.154287 
102*1965.154287 102*1961.906834 
102*1961.906834 102*1958.659381 
102*1958.659381 102*1955.411928 
102*1955.411928 102*1952.164474 
102*1952.164474 102*1948.917021 
102*1948.917021 102*1945.669568 
102*1945.669568 102*1942.422115 
102*1942.422115 102*1939.174661 
102*1939.174661 102*1935.927208 
102*1935.927208 102*1932.679755 
102*1932.679755 102*1929.432301 
102*1929.432301 102*1926.184848 
102*1926.184848 102*1922.937395 
102*2091.057512 102*2087.810058 
102*2087.810058 102*2084.562605 
102*2084.562605 102*2081.315152 
102*2081.315152 102*2078.067699 
102*2078.067699 102*2074.820245 
102*2074.820245 102*2071.572792 
102*2071.572792 102*2068.325339 
102*2068.325339 102*2065.077885 
102*2065.077885 102*2061.830432 
102*2061.830432 102*2058.582979 
102*2058.582979 102*2055.335526 
102*2055.335526 102*2052.088072 
102*2052.088072 102*2048.840619 
102*2048.840619 102*2045.593166 
102*2045.593166 102*2042.345713 
102*2042.345713 102*2039.098259 
102*2039.098259 102*2035.850806 
102*2035.850806 102*2032.603353 
102*2032.603353 102*2029.355900 
102*2029.355900 102*2026.108446 
102*2026.108446 102*2022.860993 
102*2022.860993 102*2019.613540 
102*2019.613540 102*2016.366086 
102*2016.366086 102*2013.118633 
102*2013.118633 102*2009.871180 
102*2009.871180 102*2006.623727 
102*2006.623727 102*2003.376273 
102*2003.376273 102*2000.128820 
102*2000.128820 102*1996.881367 
102*1996.881367 102*1993.633914 
102*1993.633914 102*1990.386460 
102*1990.386460 102*1987.139007 
102*1987.139007 102*1983.891554 
102*1983.891554 102*1980.644100 
102*1980.644100 102*1977.396647 
102*1977.396647 102*1974.149194 
102*1974.149194 102*1970.901741 
102*1970.901741 102*1967.654287 
102*1967.654287 102*1964.406834 
102*1964.406834 102*1961.159381 
102*1961.159381 102*1957.911928 
102*1957.911928 102*1954.664474 
102*1954.664474 102*1951.417021 
102*1951.417021 102*1948.169568 
102*1948.169568 102*1944.922115 
102*1944.922115 102*1941.674661 
102*1941.674661 102*1938.427208 
102*1938.427208 102*1935.179755 
102*1935.179755 102*1931.932301 
102*1931.932301 102*1928.684848 
102*1928.684848 102*1925.437395 
102*2091.057512 102*2087.810058 
102*2087.810058 102*2084.562605 
102*2084.562605 102*2081.315152 
102*2081.315152 102*2078.067699 
102*2078.067699 102*2074.820245 
102*2074.820245 102*2071.572792 
102*2071.572792 102*2068.325339 
102*2068.325339 102*2065.077885 
102*2065.077885 102*2061.830432 
102*2061.830432 102*2058.582979 
102*2058.582979 102*2055.335526 
102*2055.335526 102*2052.088072 
102*2052.088072 102*2048.840619 
102*2048.840619 102*2045.593166 
102*2045.593166 102*2042.345713 
102*2042.345713 102*2039.098259 
102*2039.098259 102*2035.850806 
102*2035.850806 102*2032.603353 
102*2032.603353 102*2029.355900 
102*2029.355900 102*2026.108446 
102*2026.108446 102*2022.860993 
102*2022.860993 102*2019.613540 
102*2019.613540 102*2016.366086 
102*2016.366086 102*2013.118633 
102*2013.118633 102*2009.871180 
102*2009.871180 102*2006.623727 
102*2006.623727 102*2003.376273 
102*2003.376273 102*2000.128820 
102*2000.128820 102*1996.881367 
102*1996.881367 102*1993.633914 
102*1993.633914 102*1990.386460 
102*1990.386460 102*1987.139007 
102*1987.139007 102*1983.891554 
102*1983.891554 102*1980.644100 
102*1980.644100 102*1977.396647 
102*1977.396647 102*1974.149194 
102*1974.149194 102*1970.901741 
102*1970.901741 102*1967.654287 
102*1967.654287 102*1964.406834 
102*1964.406834 102*1961.159381 
102*1961.159381 102*1957.911928 
102*1957.911928 102*1954.664474 
102*1954.664474 102*1951.417021 
102*1951.417021 102*1948.169568 
102*1948.169568 102*1944.922115 
102*1944.922115 102*1941.674661 
102*1941.674661 102*1938.427208 
102*1938.427208 102*1935.179755 
102*1935.179755 102*1931.932301 
102*1931.932301 102*1928.684848 
102*1928.684848 102*1925.437395 
102*2093.557512 102*2090.310058 
102*2090.310058 102*2087.062605 
102*2087.062605 102*2083.815152 
102*2083.815152 102*2080.567699 
102*2080.567699 102*2077.320245 
102*2077.320245 102*2074.072792 
102*2074.072792 102*2070.825339 
102*2070.825339 102*2067.577885 
102*2067.577885 102*2064.330432 
102*2064.330432 102*2061.082979 
102*2061.082979 102*2057.835526 
102*2057.835526 102*2054.588072 
102*2054.588072 102*2051.340619 
102*2051.340619 102*2048.093166 
102*2048.093166 102*2044.845713 
102*2044.845713 102*2041.598259 
102*2041.598259 102*2038.350806 
102*2038.350806 102*2035.103353 
102*2035.103353 102*2031.855900 
102*2031.855900 102*2028.608446 
102*2028.608446 102*2025.360993 
102*2025.360993 102*2022.113540 
102*2022.113540 102*2018.866086 
102*2018.866086 102*2015.618633 
102*2015.618633 102*2012.371180 
102*2012.371180 102*2009.123727 
102*2009.123727 102*2005.876273 
102*2005.876273 102*2002.628820 
102*2002.628820 102*1999.381367 
102*1999.381367 102*1996.133914 
102*1996.133914 102*1992.886460 
102*1992.886460 102*1989.639007 
102*1989.639007 102*1986.391554 
102*1986.391554 102*1983.144100 
102*1983.144100 102*1979.896647 
102*1979.896647 102*1976.649194 
102*1976.649194 102*1973.401741 
102*1973.401741 102*1970.154287 
102*1970.154287 102*1966.906834 
102*1966.906834 102*1963.659381 
102*1963.659381 102*1960.411928 
102*1960.411928 102*1957.164474 
102*1957.164474 102*1953.917021 
102*1953.917021 102*1950.669568 
102*1950.669568 102*1947.422115 
102*1947.422115 102*1944.174661 
102*1944.174661 102*1940.927208 
102*1940.927208 102*1937.679755 
102*1937.679755 102*1934.432301 
102*1934.432301 102*1931.184848 
102*1931.184848 102*1927.937395 
102*2093.557512 102*2090.310058 
102*2090.310058 102*2087.062605 
102*2087.062605 102*2083.815152 
102*2083.815152 102*2080.567699 
102*2080.567699 102*2077.320245 
102*2077.320245 102*2074.072792 
102*2074.072792 102*2070.825339 
102*2070.825339 102*2067.577885 
102*2067.577885 102*2064.330432 
102*2064.330432 102*2061.082979 
102*2061.082979 102*2057.835526 
102*2057.835526 102*2054.588072 
102*2054.588072 102*2051.340619 
102*2051.340619 102*2048.093166 
102*2048.093166 102*2044.845713 
102*2044.845713 102*2041.598259 
102*2041.598259 102*2038.350806 
102*2038.350806 102*2035.103353 
102*2035.103353 102*2031.855900 
102*2031.855900 102*2028.608446 
102*2028.608446 102*2025.360993 
102*2025.360993 102*2022.113540 
102*2022.113540 102*2018.866086 
102*2018.866086 102*2015.618633 
102*2015.618633 102*2012.371180 
102*2012.371180 102*2009.123727 
102*2009.123727 102*2005.876273 
102*2005.876273 102*2002.628820 
102*2002.628820 102*1999.381367 
102*1999.381367 102*1996.133914 
102*1996.133914 102*1992.886460 
102*1992.886460 102*1989.639007 
102*1989.639007 102*1986.391554 
102*1986.391554 102*1983.144100 
102*1983.144100 102*1979.896647 
102*1979.896647 102*1976.649194 
102*1976.649194 102*1973.401741 
102*1973.401741 102*1970.154287 
102*1970.154287 102*1966.906834 
102*1966.906834 102*1963.659381 
102*1963.659381 102*1960.411928 
102*1960.411928 102*1957.164474 
102*1957.164474 102*1953.917021 
102*1953.917021 102*1950.669568 
102*1950.669568 102*1947.422115 
102*1947.422115 102*1944.174661 
102*1944.174661 102*1940.927208 
102*1940.927208 102*1937.679755 
102*1937.679755 102*1934.432301 
102*1934.432301 102*1931.184848 
102*1931.184848 102*1927.937395 
102*2096.057512 102*2092.810058 
102*2092.810058 102*2089.562605 
102*2089.562605 102*2086.315152 
102*2086.315152 102*2083.067699 
102*2083.067699 102*2079.820245 
102*2079.820245 102*2076.572792 
102*2076.572792 102*2073.325339 
102*2073.325339 102*2070.077885 
102*2070.077885 102*2066.830432 
102*2066.830432 102*2063.582979 
102*2063.582979 102*2060.335526 
102*2060.335526 102*2057.088072 
102*2057.088072 102*2053.840619 
102*2053.840619 102*2050.593166 
102*2050.593166 102*2047.345713 
102*2047.345713 102*2044.098259 
102*2044.098259 102*2040.850806 
102*2040.850806 102*2037.603353 
102*2037.603353 102*2034.355900 
102*2034.355900 102*2031.108446 
102*2031.108446 102*2027.860993 
102*2027.860993 102*2024.613540 
102*2024.613540 102*2021.366086 
102*2021.366086 102*2018.118633 
102*2018.118633 102*2014.871180 
102*2014.871180 102*2011.623727 
102*2011.623727 102*2008.376273 
102*2008.376273 102*2005.128820 
102*2005.128820 102*2001.881367 
102*2001.881367 102*1998.633914 
102*1998.633914 102*1995.386460 
102*1995.386460 102*1992.139007 
102*1992.139007 102*1988.891554 
102*1988.891554 102*1985.644100 
102*1985.644100 102*1982.396647 
102*1982.396647 102*1979.149194 
102*1979.149194 102*1975.901741 
102*1975.901741 102*1972.654287 
102*1972.654287 102*1969.406834 
102*1969.406834 102*1966.159381 
102*1966.159381 102*1962.911928 
102*1962.911928 102*1959.664474 
102*1959.664474 102*1956.417021 
102*1956.417021 102*1953.169568 
102*1953.169568 102*1949.922115 
102*1949.922115 102*1946.674661 
102*1946.674661 102*1943.427208 
102*1943.427208 102*1940.179755 
102*1940.179755 102*1936.932301 
102*1936.932301 102*1933.684848 
102*1933.684848 102*1930.437395 
102*2096.057512 102*2092.810058 
102*2092.810058 102*2089.562605 
102*2089.562605 102*2086.315152 
102*2086.315152 102*2083.067699 
102*2083.067699 102*2079.820245 
102*2079.820245 102*2076.572792 
102*2076.572792 102*2073.325339 
102*2073.325339 102*2070.077885 
102*2070.077885 102*2066.830432 
102*2066.830432 102*2063.582979 
102*2063.582979 102*2060.335526 
102*2060.335526 102*2057.088072 
102*2057.088072 102*2053.840619 
102*2053.840619 102*2050.593166 
102*2050.593166 102*2047.345713 
102*2047.345713 102*2044.098259 
102*2044.098259 102*2040.850806 
102*2040.850806 102*2037.603353 
102*2037.603353 102*2034.355900 
102*2034.355900 102*2031.108446 
102*2031.108446 102*2027.860993 
102*2027.860993 102*2024.613540 
102*2024.613540 102*2021.366086 
102*2021.366086 102*2018.118633 
102*2018.118633 102*2014.871180 
102*2014.871180 102*2011.623727 
102*2011.623727 102*2008.376273 
102*2008.376273 102*2005.128820 
102*2005.128820 102*2001.881367 
102*2001.881367 102*1998.633914 
102*1998.633914 102*1995.386460 
102*1995.386460 102*1992.139007 
102*1992.139007 102*1988.891554 
102*1988.891554 102*1985.644100 
102*1985.644100 102*1982.396647 
102*1982.396647 102*1979.149194 
102*1979.149194 102*1975.901741 
102*1975.901741 102*1972.654287 
102*1972.654287 102*1969.406834 
102*1969.406834 102*1966.159381 
102*1966.159381 102*1962.911928 
102*1962.911928 102*1959.664474 
102*1959.664474 102*1956.417021 
102*1956.417021 102*1953.169568 
102*1953.169568 102*1949.922115 
102*1949.922115 102*1946.674661 
102*1946.674661 102*1943.427208 
102*1943.427208 102*1940.179755 
102*1940.179755 102*1936.932301 
102*1936.932301 102*1933.684848 
102*1933.684848 102*1930.437395 
102*2098.557512 102*2095.310058 
102*2095.310058 102*2092.062605 
102*2092.062605 102*2088.815152 
102*2088.815152 102*2085.567699 
102*2085.567699 102*2082.320245 
102*2082.320245 102*2079.072792 
102*2079.072792 102*2075.825339 
102*2075.825339 102*2072.577885 
102*2072.577885 102*2069.330432 
102*2069.330432 102*2066.082979 
102*2066.082979 102*2062.835526 
102*2062.835526 102*2059.588072 
102*2059.588072 102*2056.340619 
102*2056.340619 102*2053.093166 
102*2053.093166 102*2049.845713 
102*2049.845713 102*2046.598259 
102*2046.598259 102*2043.350806 
102*2043.350806 102*2040.103353 
102*2040.103353 102*2036.855900 
102*2036.855900 102*2033.608446 
102*2033.608446 102*2030.360993 
102*2030.360993 102*2027.113540 
102*2027.113540 102*2023.866086 
102*2023.866086 102*2020.618633 
102*2020.618633 102*2017.371180 
102*2017.371180 102*2014.123727 
102*2014.123727 102*2010.876273 
102*2010.876273 102*2007.628820 
102*2007.628820 102*2004.381367 
102*2004.381367 102*2001.133914 
102*2001.133914 102*1997.886460 
102*1997.886460 102*1994.639007 
102*1994.639007 102*1991.391554 
102*1991.391554 102*1988.144100 
102*1988.144100 102*1984.896647 
102*1984.896647 102*1981.649194 
102*1981.649194 102*1978.401741 
102*1978.401741 102*1975.154287 
102*1975.154287 102*1971.906834 
102*1971.906834 102*1968.659381 
102*1968.659381 102*1965.411928 
102*1965.411928 102*1962.164474 
102*1962.164474 102*1958.917021 
102*1958.917021 102*1955.669568 
102*1955.669568 102*1952.422115 
102*1952.422115 102*1949.174661 
102*1949.174661 102*1945.927208 
102*1945.927208 102*1942.679755 
102*1942.679755 102*1939.432301 
102*1939.432301 102*1936.184848 
102*1936.184848 102*1932.937395 
102*2098.557512 102*2095.310058 
102*2095.310058 102*2092.062605 
102*2092.062605 102*2088.815152 
102*2088.815152 102*2085.567699 
102*2085.567699 102*2082.320245 
102*2082.320245 102*2079.072792 
102*2079.072792 102*2075.825339 
102*2075.825339 102*2072.577885 
102*2072.577885 102*2069.330432 
102*2069.330432 102*2066.082979 
102*2066.082979 102*2062.835526 
102*2062.835526 102*2059.588072 
102*2059.588072 102*2056.340619 
102*2056.340619 102*2053.093166 
102*2053.093166 102*2049.845713 
102*2049.845713 102*2046.598259 
102*2046.598259 102*2043.350806 
102*2043.350806 102*2040.103353 
102*2040.103353 102*2036.855900 
102*2036.855900 102*2033.608446 
102*2033.608446 102*2030.360993 
102*2030.360993 102*2027.113540 
102*2027.113540 102*2023.866086 
102*2023.866086 102*2020.618633 
102*2020.618633 102*2017.371180 
102*2017.371180 102*2014.123727 
102*2014.123727 102*2010.876273 
102*2010.876273 102*2007.628820 
102*2007.628820 102*2004.381367 
102*2004.381367 102*2001.133914 
102*2001.133914 102*1997.886460 
102*1997.886460 102*1994.639007 
102*1994.639007 102*1991.391554 
102*1991.391554 102*1988.144100 
102*1988.144100 102*1984.896647 
102*1984.896647 102*1981.649194 
102*1981.649194 102*1978.401741 
102*1978.401741 102*1975.154287 
102*1975.154287 102*1971.906834 
102*1971.906834 102*1968.659381 
102*1968.659381 102*1965.411928 
102*1965.411928 102*1962.164474 
102*1962.164474 102*1958.917021 
102*1958.917021 102*1955.669568 
102*1955.669568 102*1952.422115 
102*1952.422115 102*1949.174661 
102*1949.174661 102*1945.927208 
102*1945.927208 102*1942.679755 
102*1942.679755 102*1939.432301 
102*1939.432301 102*1936.184848 
102*1936.184848 102*1932.937395 
102*2101.057512 102*2097.810058 
102*2097.810058 102*2094.562605 
102*2094.562605 102*2091.315152 
102*2091.315152 102*2088.067699 
102*2088.067699 102*2084.820245 
102*2084.820245 102*2081.572792 
102*2081.572792 102*2078.325339 
102*2078.325339 102*2075.077885 
102*2075.077885 102*2071.830432 
102*2071.830432 102*2068.582979 
102*2068.582979 102*2065.335526 
102*2065.335526 102*2062.088072 
102*2062.088072 102*2058.840619 
102*2058.840619 102*2055.593166 
102*2055.593166 102*2052.345713 
102*2052.345713 102*2049.098259 
102*2049.098259 102*2045.850806 
102*2045.850806 102*2042.603353 
102*2042.603353 102*2039.355900 
102*2039.355900 102*2036.108446 
102*2036.108446 102*2032.860993 
102*2032.860993 102*2029.613540 
102*2029.613540 102*2026.366086 
102*2026.366086 102*2023.118633 
102*2023.118633 102*2019.871180 
102*2019.871180 102*2016.623727 
102*2016.623727 102*2013.376273 
102*2013.376273 102*2010.128820 
102*2010.128820 102*2006.881367 
102*2006.881367 102*2003.633914 
102*2003.633914 102*2000.386460 
102*2000.386460 102*1997.139007 
102*1997.139007 102*1993.891554 
102*1993.891554 102*1990.644100 
102*1990.644100 102*1987.396647 
102*1987.396647 102*1984.149194 
102*1984.149194 102*1980.901741 
102*1980.901741 102*1977.654287 
102*1977.654287 102*1974.406834 
102*1974.406834 102*1971.159381 
102*1971.159381 102*1967.911928 
102*1967.911928 102*1964.664474 
102*1964.664474 102*1961.417021 
102*1961.417021 102*1958.169568 
102*1958.169568 102*1954.922115 
102*1954.922115 102*1951.674661 
102*1951.674661 102*1948.427208 
102*1948.427208 102*1945.179755 
102*1945.179755 102*1941.932301 
102*1941.932301 102*1938.684848 
102*1938.684848 102*1935.437395 
102*2101.057512 102*2097.810058 
102*2097.810058 102*2094.562605 
102*2094.562605 102*2091.315152 
102*2091.315152 102*2088.067699 
102*2088.067699 102*2084.820245 
102*2084.820245 102*2081.572792 
102*2081.572792 102*2078.325339 
102*2078.325339 102*2075.077885 
102*2075.077885 102*2071.830432 
102*2071.830432 102*2068.582979 
102*2068.582979 102*2065.335526 
102*2065.335526 102*2062.088072 
102*2062.088072 102*2058.840619 
102*2058.840619 102*2055.593166 
102*2055.593166 102*2052.345713 
102*2052.345713 102*2049.098259 
102*2049.098259 102*2045.850806 
102*2045.850806 102*2042.603353 
102*2042.603353 102*2039.355900 
102*2039.355900 102*2036.108446 
102*2036.108446 102*2032.860993 
102*2032.860993 102*2029.613540 
102*2029.613540 102*2026.366086 
102*2026.366086 102*2023.118633 
102*2023.118633 102*2019.871180 
102*2019.871180 102*2016.623727 
102*2016.623727 102*2013.376273 
102*2013.376273 102*2010.128820 
102*2010.128820 102*2006.881367 
102*2006.881367 102*2003.633914 
102*2003.633914 102*2000.386460 
102*2000.386460 102*1997.139007 
102*1997.139007 102*1993.891554 
102*1993.891554 102*1990.644100 
102*1990.644100 102*1987.396647 
102*1987.396647 102*1984.149194 
102*1984.149194 102*1980.901741 
102*1980.901741 102*1977.654287 
102*1977.654287 102*1974.406834 
102*1974.406834 102*1971.159381 
102*1971.159381 102*1967.911928 
102*1967.911928 102*1964.664474 
102*1964.664474 102*1961.417021 
102*1961.417021 102*1958.169568 
102*1958.169568 102*1954.922115 
102*1954.922115 102*1951.674661 
102*1951.674661 102*1948.427208 
102*1948.427208 102*1945.179755 
102*1945.179755 102*1941.932301 
102*1941.932301 102*1938.684848 
102*1938.684848 102*1935.437395 
102*2103.557512 102*2100.310058 
102*2100.310058 102*2097.062605 
102*2097.062605 102*2093.815152 
102*2093.815152 102*2090.567699 
102*2090.567699 102*2087.320245 
102*2087.320245 102*2084.072792 
102*2084.072792 102*2080.825339 
102*2080.825339 102*2077.577885 
102*2077.577885 102*2074.330432 
102*2074.330432 102*2071.082979 
102*2071.082979 102*2067.835526 
102*2067.835526 102*2064.588072 
102*2064.588072 102*2061.340619 
102*2061.340619 102*2058.093166 
102*2058.093166 102*2054.845713 
102*2054.845713 102*2051.598259 
102*2051.598259 102*2048.350806 
102*2048.350806 102*2045.103353 
102*2045.103353 102*2041.855900 
102*2041.855900 102*2038.608446 
102*2038.608446 102*2035.360993 
102*2035.360993 102*2032.113540 
102*2032.113540 102*2028.866086 
102*2028.866086 102*2025.618633 
102*2025.618633 102*2022.371180 
102*2022.371180 102*2019.123727 
102*2019.123727 102*2015.876273 
102*2015.876273 102*2012.628820 
102*2012.628820 102*2009.381367 
102*2009.381367 102*2006.133914 
102*2006.133914 102*2002.886460 
102*2002.886460 102*1999.639007 
102*1999.639007 102*1996.391554 
102*1996.391554 102*1993.144100 
102*1993.144100 102*1989.896647 
102*1989.896647 102*1986.649194 
102*1986.649194 102*1983.401741 
102*1983.401741 102*1980.154287 
102*1980.154287 102*1976.906834 
102*1976.906834 102*1973.659381 
102*1973.659381 102*1970.411928 
102*1970.411928 102*1967.164474 
102*1967.164474 102*1963.917021 
102*1963.917021 102*1960.669568 
102*1960.669568 102*1957.422115 
102*1957.422115 102*1954.174661 
102*1954.174661 102*1950.927208 
102*1950.927208 102*1947.679755 
102*1947.679755 102*1944.432301 
102*1944.432301 102*1941.184848 
102*1941.184848 102*1937.937395 
102*2103.557512 102*2100.310058 
102*2100.310058 102*2097.062605 
102*2097.062605 102*2093.815152 
102*2093.815152 102*2090.567699 
102*2090.567699 102*2087.320245 
102*2087.320245 102*2084.072792 
102*2084.072792 102*2080.825339 
102*2080.825339 102*2077.577885 
102*2077.577885 102*2074.330432 
102*2074.330432 102*2071.082979 
102*2071.082979 102*2067.835526 
102*2067.835526 102*2064.588072 
102*2064.588072 102*2061.340619 
102*2061.340619 102*2058.093166 
102*2058.093166 102*2054.845713 
102*2054.845713 102*2051.598259 
102*2051.598259 102*2048.350806 
102*2048.350806 102*2045.103353 
102*2045.103353 102*2041.855900 
102*2041.855900 102*2038.608446 
102*2038.608446 102*2035.360993 
102*2035.360993 102*2032.113540 
102*2032.113540 102*2028.866086 
102*2028.866086 102*2025.618633 
102*2025.618633 102*2022.371180 
102*2022.371180 102*2019.123727 
102*2019.123727 102*2015.876273 
102*2015.876273 102*2012.628820 
102*2012.628820 102*2009.381367 
102*2009.381367 102*2006.133914 
102*2006.133914 102*2002.886460 
102*2002.886460 102*1999.639007 
102*1999.639007 102*1996.391554 
102*1996.391554 102*1993.144100 
102*1993.144100 102*1989.896647 
102*1989.896647 102*1986.649194 
102*1986.649194 102*1983.401741 
102*1983.401741 102*1980.154287 
102*1980.154287 102*1976.906834 
102*1976.906834 102*1973.659381 
102*1973.659381 102*1970.411928 
102*1970.411928 102*1967.164474 
102*1967.164474 102*1963.917021 
102*1963.917021 102*1960.669568 
102*1960.669568 102*1957.422115 
102*1957.422115 102*1954.174661 
102*1954.174661 102*1950.927208 
102*1950.927208 102*1947.679755 
102*1947.679755 102*1944.432301 
102*1944.432301 102*1941.184848 
102*1941.184848 102*1937.937395 
102*2106.057512 102*2102.810058 
102*2102.810058 102*2099.562605 
102*2099.562605 102*2096.315152 
102*2096.315152 102*2093.067699 
102*2093.067699 102*2089.820245 
102*2089.820245 102*2086.572792 
102*2086.572792 102*2083.325339 
102*2083.325339 102*2080.077885 
102*2080.077885 102*2076.830432 
102*2076.830432 102*2073.582979 
102*2073.582979 102*2070.335526 
102*2070.335526 102*2067.088072 
102*2067.088072 102*2063.840619 
102*2063.840619 102*2060.593166 
102*2060.593166 102*2057.345713 
102*2057.345713 102*2054.098259 
102*2054.098259 102*2050.850806 
102*2050.850806 102*2047.603353 
102*2047.603353 102*2044.355900 
102*2044.355900 102*2041.108446 
102*2041.108446 102*2037.860993 
102*2037.860993 102*2034.613540 
102*2034.613540 102*2031.366086 
102*2031.366086 102*2028.118633 
102*2028.118633 102*2024.871180 
102*2024.871180 102*2021.623727 
102*2021.623727 102*2018.376273 
102*2018.376273 102*2015.128820 
102*2015.128820 102*2011.881367 
102*2011.881367 102*2008.633914 
102*2008.633914 102*2005.386460 
102*2005.386460 102*2002.139007 
102*2002.139007 102*1998.891554 
102*1998.891554 102*1995.644100 
102*1995.644100 102*1992.396647 
102*1992.396647 102*1989.149194 
102*1989.149194 102*1985.901741 
102*1985.901741 102*1982.654287 
102*1982.654287 102*1979.406834 
102*1979.406834 102*1976.159381 
102*1976.159381 102*1972.911928 
102*1972.911928 102*1969.664474 
102*1969.664474 102*1966.417021 
102*1966.417021 102*1963.169568 
102*1963.169568 102*1959.922115 
102*1959.922115 102*1956.674661 
102*1956.674661 102*1953.427208 
102*1953.427208 102*1950.179755 
102*1950.179755 102*1946.932301 
102*1946.932301 102*1943.684848 
102*1943.684848 102*1940.437395 
102*2106.057512 102*2102.810058 
102*2102.810058 102*2099.562605 
102*2099.562605 102*2096.315152 
102*2096.315152 102*2093.067699 
102*2093.067699 102*2089.820245 
102*2089.820245 102*2086.572792 
102*2086.572792 102*2083.325339 
102*2083.325339 102*2080.077885 
102*2080.077885 102*2076.830432 
102*2076.830432 102*2073.582979 
102*2073.582979 102*2070.335526 
102*2070.335526 102*2067.088072 
102*2067.088072 102*2063.840619 
102*2063.840619 102*2060.593166 
102*2060.593166 102*2057.345713 
102*2057.345713 102*2054.098259 
102*2054.098259 102*2050.850806 
102*2050.850806 102*2047.603353 
102*2047.603353 102*2044.355900 
102*2044.355900 102*2041.108446 
102*2041.108446 102*2037.860993 
102*2037.860993 102*2034.613540 
102*2034.613540 102*2031.366086 
102*2031.366086 102*2028.118633 
102*2028.118633 102*2024.871180 
102*2024.871180 102*2021.623727 
102*2021.623727 102*2018.376273 
102*2018.376273 102*2015.128820 
102*2015.128820 102*2011.881367 
102*2011.881367 102*2008.633914 
102*2008.633914 102*2005.386460 
102*2005.386460 102*2002.139007 
102*2002.139007 102*1998.891554 
102*1998.891554 102*1995.644100 
102*1995.644100 102*1992.396647 
102*1992.396647 102*1989.149194 
102*1989.149194 102*1985.901741 
102*1985.901741 102*1982.654287 
102*1982.654287 102*1979.406834 
102*1979.406834 102*1976.159381 
102*1976.159381 102*1972.911928 
102*1972.911928 102*1969.664474 
102*1969.664474 102*1966.417021 
102*1966.417021 102*1963.169568 
102*1963.169568 102*1959.922115 
102*1959.922115 102*1956.674661 
102*1956.674661 102*1953.427208 
102*1953.427208 102*1950.179755 
102*1950.179755 102*1946.932301 
102*1946.932301 102*1943.684848 
102*1943.684848 102*1940.437395 
102*2108.557512 102*2105.310058 
102*2105.310058 102*2102.062605 
102*2102.062605 102*2098.815152 
102*2098.815152 102*2095.567699 
102*2095.567699 102*2092.320245 
102*2092.320245 102*2089.072792 
102*2089.072792 102*2085.825339 
102*2085.825339 102*2082.577885 
102*2082.577885 102*2079.330432 
102*2079.330432 102*2076.082979 
102*2076.082979 102*2072.835526 
102*2072.835526 102*2069.588072 
102*2069.588072 102*2066.340619 
102*2066.340619 102*2063.093166 
102*2063.093166 102*2059.845713 
102*2059.845713 102*2056.598259 
102*2056.598259 102*2053.350806 
102*2053.350806 102*2050.103353 
102*2050.103353 102*2046.855900 
102*2046.855900 102*2043.608446 
102*2043.608446 102*2040.360993 
102*2040.360993 102*2037.113540 
102*2037.113540 102*2033.866086 
102*2033.866086 102*2030.618633 
102*2030.618633 102*2027.371180 
102*2027.371180 102*2024.123727 
102*2024.123727 102*2020.876273 
102*2020.876273 102*2017.628820 
102*2017.628820 102*2014.381367 
102*2014.381367 102*2011.133914 
102*2011.133914 102*2007.886460 
102*2007.886460 102*2004.639007 
102*2004.639007 102*2001.391554 
102*2001.391554 102*1998.144100 
102*1998.144100 102*1994.896647 
102*1994.896647 102*1991.649194 
102*1991.649194 102*1988.401741 
102*1988.401741 102*1985.154287 
102*1985.154287 102*1981.906834 
102*1981.906834 102*1978.659381 
102*1978.659381 102*1975.411928 