ZCORN
102*2042.554785 102*2040.948944 
102*2040.948944 102*2039.343103 
102*2039.343103 102*2037.737262 
102*2037.737262 102*2036.131421 
102*2036.131421 102*2034.525580 
102*2034.525580 102*2032.919739 
102*2032.919739 102*2031.313898 
102*2031.313898 102*2029.708057 
102*2029.708057 102*2028.102216 
102*2028.102216 102*2026.496375 
102*2026.496375 102*2024.890534 
102*2024.890534 102*2023.284693 
102*2023.284693 102*2021.678852 
102*2021.678852 102*2020.073012 
102*2020.073012 102*2018.467171 
102*2018.467171 102*2016.861330 
102*2016.861330 102*2015.255489 
102*2015.255489 102*2013.649648 
102*2013.649648 102*2012.043807 
102*2012.043807 102*2010.437966 
102*2010.437966 102*2008.832125 
102*2008.832125 102*2007.226284 
102*2007.226284 102*2005.620443 
102*2005.620443 102*2004.014602 
102*2004.014602 102*2002.408761 
102*2002.408761 102*2000.802920 
102*2000.802920 102*1999.197080 
102*1999.197080 102*1997.591239 
102*1997.591239 102*1995.985398 
102*1995.985398 102*1994.379557 
102*1994.379557 102*1992.773716 
102*1992.773716 102*1991.167875 
102*1991.167875 102*1989.562034 
102*1989.562034 102*1987.956193 
102*1987.956193 102*1986.350352 
102*1986.350352 102*1984.744511 
102*1984.744511 102*1983.138670 
102*1983.138670 102*1981.532829 
102*1981.532829 102*1979.926988 
102*1979.926988 102*1978.321148 
102*1978.321148 102*1976.715307 
102*1976.715307 102*1975.109466 
102*1975.109466 102*1973.503625 
102*1973.503625 102*1971.897784 
102*1971.897784 102*1970.291943 
102*1970.291943 102*1968.686102 
102*1968.686102 102*1967.080261 
102*1967.080261 102*1965.474420 
102*1965.474420 102*1963.868579 
102*1963.868579 102*1962.262738 
102*1962.262738 102*1960.656897 
102*2045.054785 102*2043.448944 
102*2043.448944 102*2041.843103 
102*2041.843103 102*2040.237262 
102*2040.237262 102*2038.631421 
102*2038.631421 102*2037.025580 
102*2037.025580 102*2035.419739 
102*2035.419739 102*2033.813898 
102*2033.813898 102*2032.208057 
102*2032.208057 102*2030.602216 
102*2030.602216 102*2028.996375 
102*2028.996375 102*2027.390534 
102*2027.390534 102*2025.784693 
102*2025.784693 102*2024.178852 
102*2024.178852 102*2022.573012 
102*2022.573012 102*2020.967171 
102*2020.967171 102*2019.361330 
102*2019.361330 102*2017.755489 
102*2017.755489 102*2016.149648 
102*2016.149648 102*2014.543807 
102*2014.543807 102*2012.937966 
102*2012.937966 102*2011.332125 
102*2011.332125 102*2009.726284 
102*2009.726284 102*2008.120443 
102*2008.120443 102*2006.514602 
102*2006.514602 102*2004.908761 
102*2004.908761 102*2003.302920 
102*2003.302920 102*2001.697080 
102*2001.697080 102*2000.091239 
102*2000.091239 102*1998.485398 
102*1998.485398 102*1996.879557 
102*1996.879557 102*1995.273716 
102*1995.273716 102*1993.667875 
102*1993.667875 102*1992.062034 
102*1992.062034 102*1990.456193 
102*1990.456193 102*1988.850352 
102*1988.850352 102*1987.244511 
102*1987.244511 102*1985.638670 
102*1985.638670 102*1984.032829 
102*1984.032829 102*1982.426988 
102*1982.426988 102*1980.821148 
102*1980.821148 102*1979.215307 
102*1979.215307 102*1977.609466 
102*1977.609466 102*1976.003625 
102*1976.003625 102*1974.397784 
102*1974.397784 102*1972.791943 
102*1972.791943 102*1971.186102 
102*1971.186102 102*1969.580261 
102*1969.580261 102*1967.974420 
102*1967.974420 102*1966.368579 
102*1966.368579 102*1964.762738 
102*1964.762738 102*1963.156897 
102*2045.054785 102*2043.448944 
102*2043.448944 102*2041.843103 
102*2041.843103 102*2040.237262 
102*2040.237262 102*2038.631421 
102*2038.631421 102*2037.025580 
102*2037.025580 102*2035.419739 
102*2035.419739 102*2033.813898 
102*2033.813898 102*2032.208057 
102*2032.208057 102*2030.602216 
102*2030.602216 102*2028.996375 
102*2028.996375 102*2027.390534 
102*2027.390534 102*2025.784693 
102*2025.784693 102*2024.178852 
102*2024.178852 102*2022.573012 
102*2022.573012 102*2020.967171 
102*2020.967171 102*2019.361330 
102*2019.361330 102*2017.755489 
102*2017.755489 102*2016.149648 
102*2016.149648 102*2014.543807 
102*2014.543807 102*2012.937966 
102*2012.937966 102*2011.332125 
102*2011.332125 102*2009.726284 
102*2009.726284 102*2008.120443 
102*2008.120443 102*2006.514602 
102*2006.514602 102*2004.908761 
102*2004.908761 102*2003.302920 
102*2003.302920 102*2001.697080 
102*2001.697080 102*2000.091239 
102*2000.091239 102*1998.485398 
102*1998.485398 102*1996.879557 
102*1996.879557 102*1995.273716 
102*1995.273716 102*1993.667875 
102*1993.667875 102*1992.062034 
102*1992.062034 102*1990.456193 
102*1990.456193 102*1988.850352 
102*1988.850352 102*1987.244511 
102*1987.244511 102*1985.638670 
102*1985.638670 102*1984.032829 
102*1984.032829 102*1982.426988 
102*1982.426988 102*1980.821148 
102*1980.821148 102*1979.215307 
102*1979.215307 102*1977.609466 
102*1977.609466 102*1976.003625 
102*1976.003625 102*1974.397784 
102*1974.397784 102*1972.791943 
102*1972.791943 102*1971.186102 
102*1971.186102 102*1969.580261 
102*1969.580261 102*1967.974420 
102*1967.974420 102*1966.368579 
102*1966.368579 102*1964.762738 
102*1964.762738 102*1963.156897 
102*2047.554785 102*2045.948944 
102*2045.948944 102*2044.343103 
102*2044.343103 102*2042.737262 
102*2042.737262 102*2041.131421 
102*2041.131421 102*2039.525580 
102*2039.525580 102*2037.919739 
102*2037.919739 102*2036.313898 
102*2036.313898 102*2034.708057 
102*2034.708057 102*2033.102216 
102*2033.102216 102*2031.496375 
102*2031.496375 102*2029.890534 
102*2029.890534 102*2028.284693 
102*2028.284693 102*2026.678852 
102*2026.678852 102*2025.073012 
102*2025.073012 102*2023.467171 
102*2023.467171 102*2021.861330 
102*2021.861330 102*2020.255489 
102*2020.255489 102*2018.649648 
102*2018.649648 102*2017.043807 
102*2017.043807 102*2015.437966 
102*2015.437966 102*2013.832125 
102*2013.832125 102*2012.226284 
102*2012.226284 102*2010.620443 
102*2010.620443 102*2009.014602 
102*2009.014602 102*2007.408761 
102*2007.408761 102*2005.802920 
102*2005.802920 102*2004.197080 
102*2004.197080 102*2002.591239 
102*2002.591239 102*2000.985398 
102*2000.985398 102*1999.379557 
102*1999.379557 102*1997.773716 
102*1997.773716 102*1996.167875 
102*1996.167875 102*1994.562034 
102*1994.562034 102*1992.956193 
102*1992.956193 102*1991.350352 
102*1991.350352 102*1989.744511 
102*1989.744511 102*1988.138670 
102*1988.138670 102*1986.532829 
102*1986.532829 102*1984.926988 
102*1984.926988 102*1983.321148 
102*1983.321148 102*1981.715307 
102*1981.715307 102*1980.109466 
102*1980.109466 102*1978.503625 
102*1978.503625 102*1976.897784 
102*1976.897784 102*1975.291943 
102*1975.291943 102*1973.686102 
102*1973.686102 102*1972.080261 
102*1972.080261 102*1970.474420 
102*1970.474420 102*1968.868579 
102*1968.868579 102*1967.262738 
102*1967.262738 102*1965.656897 
102*2047.554785 102*2045.948944 
102*2045.948944 102*2044.343103 
102*2044.343103 102*2042.737262 
102*2042.737262 102*2041.131421 
102*2041.131421 102*2039.525580 
102*2039.525580 102*2037.919739 
102*2037.919739 102*2036.313898 
102*2036.313898 102*2034.708057 
102*2034.708057 102*2033.102216 
102*2033.102216 102*2031.496375 
102*2031.496375 102*2029.890534 
102*2029.890534 102*2028.284693 
102*2028.284693 102*2026.678852 
102*2026.678852 102*2025.073012 
102*2025.073012 102*2023.467171 
102*2023.467171 102*2021.861330 
102*2021.861330 102*2020.255489 
102*2020.255489 102*2018.649648 
102*2018.649648 102*2017.043807 
102*2017.043807 102*2015.437966 
102*2015.437966 102*2013.832125 
102*2013.832125 102*2012.226284 
102*2012.226284 102*2010.620443 
102*2010.620443 102*2009.014602 
102*2009.014602 102*2007.408761 
102*2007.408761 102*2005.802920 
102*2005.802920 102*2004.197080 
102*2004.197080 102*2002.591239 
102*2002.591239 102*2000.985398 
102*2000.985398 102*1999.379557 
102*1999.379557 102*1997.773716 
102*1997.773716 102*1996.167875 
102*1996.167875 102*1994.562034 
102*1994.562034 102*1992.956193 
102*1992.956193 102*1991.350352 
102*1991.350352 102*1989.744511 
102*1989.744511 102*1988.138670 
102*1988.138670 102*1986.532829 
102*1986.532829 102*1984.926988 
102*1984.926988 102*1983.321148 
102*1983.321148 102*1981.715307 
102*1981.715307 102*1980.109466 
102*1980.109466 102*1978.503625 
102*1978.503625 102*1976.897784 
102*1976.897784 102*1975.291943 
102*1975.291943 102*1973.686102 
102*1973.686102 102*1972.080261 
102*1972.080261 102*1970.474420 
102*1970.474420 102*1968.868579 
102*1968.868579 102*1967.262738 
102*1967.262738 102*1965.656897 
102*2050.054785 102*2048.448944 
102*2048.448944 102*2046.843103 
102*2046.843103 102*2045.237262 
102*2045.237262 102*2043.631421 
102*2043.631421 102*2042.025580 
102*2042.025580 102*2040.419739 
102*2040.419739 102*2038.813898 
102*2038.813898 102*2037.208057 
102*2037.208057 102*2035.602216 
102*2035.602216 102*2033.996375 
102*2033.996375 102*2032.390534 
102*2032.390534 102*2030.784693 
102*2030.784693 102*2029.178852 
102*2029.178852 102*2027.573012 
102*2027.573012 102*2025.967171 
102*2025.967171 102*2024.361330 
102*2024.361330 102*2022.755489 
102*2022.755489 102*2021.149648 
102*2021.149648 102*2019.543807 
102*2019.543807 102*2017.937966 
102*2017.937966 102*2016.332125 
102*2016.332125 102*2014.726284 
102*2014.726284 102*2013.120443 
102*2013.120443 102*2011.514602 
102*2011.514602 102*2009.908761 
102*2009.908761 102*2008.302920 
102*2008.302920 102*2006.697080 
102*2006.697080 102*2005.091239 
102*2005.091239 102*2003.485398 
102*2003.485398 102*2001.879557 
102*2001.879557 102*2000.273716 
102*2000.273716 102*1998.667875 
102*1998.667875 102*1997.062034 
102*1997.062034 102*1995.456193 
102*1995.456193 102*1993.850352 
102*1993.850352 102*1992.244511 
102*1992.244511 102*1990.638670 
102*1990.638670 102*1989.032829 
102*1989.032829 102*1987.426988 
102*1987.426988 102*1985.821148 
102*1985.821148 102*1984.215307 
102*1984.215307 102*1982.609466 
102*1982.609466 102*1981.003625 
102*1981.003625 102*1979.397784 
102*1979.397784 102*1977.791943 
102*1977.791943 102*1976.186102 
102*1976.186102 102*1974.580261 
102*1974.580261 102*1972.974420 
102*1972.974420 102*1971.368579 
102*1971.368579 102*1969.762738 
102*1969.762738 102*1968.156897 
102*2050.054785 102*2048.448944 
102*2048.448944 102*2046.843103 
102*2046.843103 102*2045.237262 
102*2045.237262 102*2043.631421 
102*2043.631421 102*2042.025580 
102*2042.025580 102*2040.419739 
102*2040.419739 102*2038.813898 
102*2038.813898 102*2037.208057 
102*2037.208057 102*2035.602216 
102*2035.602216 102*2033.996375 
102*2033.996375 102*2032.390534 
102*2032.390534 102*2030.784693 
102*2030.784693 102*2029.178852 
102*2029.178852 102*2027.573012 
102*2027.573012 102*2025.967171 
102*2025.967171 102*2024.361330 
102*2024.361330 102*2022.755489 
102*2022.755489 102*2021.149648 
102*2021.149648 102*2019.543807 
102*2019.543807 102*2017.937966 
102*2017.937966 102*2016.332125 
102*2016.332125 102*2014.726284 
102*2014.726284 102*2013.120443 
102*2013.120443 102*2011.514602 
102*2011.514602 102*2009.908761 
102*2009.908761 102*2008.302920 
102*2008.302920 102*2006.697080 
102*2006.697080 102*2005.091239 
102*2005.091239 102*2003.485398 
102*2003.485398 102*2001.879557 
102*2001.879557 102*2000.273716 
102*2000.273716 102*1998.667875 
102*1998.667875 102*1997.062034 
102*1997.062034 102*1995.456193 
102*1995.456193 102*1993.850352 
102*1993.850352 102*1992.244511 
102*1992.244511 102*1990.638670 
102*1990.638670 102*1989.032829 
102*1989.032829 102*1987.426988 
102*1987.426988 102*1985.821148 
102*1985.821148 102*1984.215307 
102*1984.215307 102*1982.609466 
102*1982.609466 102*1981.003625 
102*1981.003625 102*1979.397784 
102*1979.397784 102*1977.791943 
102*1977.791943 102*1976.186102 
102*1976.186102 102*1974.580261 
102*1974.580261 102*1972.974420 
102*1972.974420 102*1971.368579 
102*1971.368579 102*1969.762738 
102*1969.762738 102*1968.156897 
102*2052.554785 102*2050.948944 
102*2050.948944 102*2049.343103 
102*2049.343103 102*2047.737262 
102*2047.737262 102*2046.131421 
102*2046.131421 102*2044.525580 
102*2044.525580 102*2042.919739 
102*2042.919739 102*2041.313898 
102*2041.313898 102*2039.708057 
102*2039.708057 102*2038.102216 
102*2038.102216 102*2036.496375 
102*2036.496375 102*2034.890534 
102*2034.890534 102*2033.284693 
102*2033.284693 102*2031.678852 
102*2031.678852 102*2030.073012 
102*2030.073012 102*2028.467171 
102*2028.467171 102*2026.861330 
102*2026.861330 102*2025.255489 
102*2025.255489 102*2023.649648 
102*2023.649648 102*2022.043807 
102*2022.043807 102*2020.437966 
102*2020.437966 102*2018.832125 
102*2018.832125 102*2017.226284 
102*2017.226284 102*2015.620443 
102*2015.620443 102*2014.014602 
102*2014.014602 102*2012.408761 
102*2012.408761 102*2010.802920 
102*2010.802920 102*2009.197080 
102*2009.197080 102*2007.591239 
102*2007.591239 102*2005.985398 
102*2005.985398 102*2004.379557 
102*2004.379557 102*2002.773716 
102*2002.773716 102*2001.167875 
102*2001.167875 102*1999.562034 
102*1999.562034 102*1997.956193 
102*1997.956193 102*1996.350352 
102*1996.350352 102*1994.744511 
102*1994.744511 102*1993.138670 
102*1993.138670 102*1991.532829 
102*1991.532829 102*1989.926988 
102*1989.926988 102*1988.321148 
102*1988.321148 102*1986.715307 
102*1986.715307 102*1985.109466 
102*1985.109466 102*1983.503625 
102*1983.503625 102*1981.897784 
102*1981.897784 102*1980.291943 
102*1980.291943 102*1978.686102 
102*1978.686102 102*1977.080261 
102*1977.080261 102*1975.474420 
102*1975.474420 102*1973.868579 
102*1973.868579 102*1972.262738 
102*1972.262738 102*1970.656897 
102*2052.554785 102*2050.948944 
102*2050.948944 102*2049.343103 
102*2049.343103 102*2047.737262 
102*2047.737262 102*2046.131421 
102*2046.131421 102*2044.525580 
102*2044.525580 102*2042.919739 
102*2042.919739 102*2041.313898 
102*2041.313898 102*2039.708057 
102*2039.708057 102*2038.102216 
102*2038.102216 102*2036.496375 
102*2036.496375 102*2034.890534 
102*2034.890534 102*2033.284693 
102*2033.284693 102*2031.678852 
102*2031.678852 102*2030.073012 
102*2030.073012 102*2028.467171 
102*2028.467171 102*2026.861330 
102*2026.861330 102*2025.255489 
102*2025.255489 102*2023.649648 
102*2023.649648 102*2022.043807 
102*2022.043807 102*2020.437966 
102*2020.437966 102*2018.832125 
102*2018.832125 102*2017.226284 
102*2017.226284 102*2015.620443 
102*2015.620443 102*2014.014602 
102*2014.014602 102*2012.408761 
102*2012.408761 102*2010.802920 
102*2010.802920 102*2009.197080 
102*2009.197080 102*2007.591239 
102*2007.591239 102*2005.985398 
102*2005.985398 102*2004.379557 
102*2004.379557 102*2002.773716 
102*2002.773716 102*2001.167875 
102*2001.167875 102*1999.562034 
102*1999.562034 102*1997.956193 
102*1997.956193 102*1996.350352 
102*1996.350352 102*1994.744511 
102*1994.744511 102*1993.138670 
102*1993.138670 102*1991.532829 
102*1991.532829 102*1989.926988 
102*1989.926988 102*1988.321148 
102*1988.321148 102*1986.715307 
102*1986.715307 102*1985.109466 
102*1985.109466 102*1983.503625 
102*1983.503625 102*1981.897784 
102*1981.897784 102*1980.291943 
102*1980.291943 102*1978.686102 
102*1978.686102 102*1977.080261 
102*1977.080261 102*1975.474420 
102*1975.474420 102*1973.868579 
102*1973.868579 102*1972.262738 
102*1972.262738 102*1970.656897 
102*2055.054785 102*2053.448944 
102*2053.448944 102*2051.843103 
102*2051.843103 102*2050.237262 
102*2050.237262 102*2048.631421 
102*2048.631421 102*2047.025580 
102*2047.025580 102*2045.419739 
102*2045.419739 102*2043.813898 
102*2043.813898 102*2042.208057 
102*2042.208057 102*2040.602216 
102*2040.602216 102*2038.996375 
102*2038.996375 102*2037.390534 
102*2037.390534 102*2035.784693 
102*2035.784693 102*2034.178852 
102*2034.178852 102*2032.573012 
102*2032.573012 102*2030.967171 
102*2030.967171 102*2029.361330 
102*2029.361330 102*2027.755489 
102*2027.755489 102*2026.149648 
102*2026.149648 102*2024.543807 
102*2024.543807 102*2022.937966 
102*2022.937966 102*2021.332125 
102*2021.332125 102*2019.726284 
102*2019.726284 102*2018.120443 
102*2018.120443 102*2016.514602 
102*2016.514602 102*2014.908761 
102*2014.908761 102*2013.302920 
102*2013.302920 102*2011.697080 
102*2011.697080 102*2010.091239 
102*2010.091239 102*2008.485398 
102*2008.485398 102*2006.879557 
102*2006.879557 102*2005.273716 
102*2005.273716 102*2003.667875 
102*2003.667875 102*2002.062034 
102*2002.062034 102*2000.456193 
102*2000.456193 102*1998.850352 
102*1998.850352 102*1997.244511 
102*1997.244511 102*1995.638670 
102*1995.638670 102*1994.032829 
102*1994.032829 102*1992.426988 
102*1992.426988 102*1990.821148 
102*1990.821148 102*1989.215307 
102*1989.215307 102*1987.609466 
102*1987.609466 102*1986.003625 
102*1986.003625 102*1984.397784 
102*1984.397784 102*1982.791943 
102*1982.791943 102*1981.186102 
102*1981.186102 102*1979.580261 
102*1979.580261 102*1977.974420 
102*1977.974420 102*1976.368579 
102*1976.368579 102*1974.762738 
102*1974.762738 102*1973.156897 
102*2055.054785 102*2053.448944 
102*2053.448944 102*2051.843103 
102*2051.843103 102*2050.237262 
102*2050.237262 102*2048.631421 
102*2048.631421 102*2047.025580 
102*2047.025580 102*2045.419739 
102*2045.419739 102*2043.813898 
102*2043.813898 102*2042.208057 
102*2042.208057 102*2040.602216 
102*2040.602216 102*2038.996375 
102*2038.996375 102*2037.390534 
102*2037.390534 102*2035.784693 
102*2035.784693 102*2034.178852 
102*2034.178852 102*2032.573012 
102*2032.573012 102*2030.967171 
102*2030.967171 102*2029.361330 
102*2029.361330 102*2027.755489 
102*2027.755489 102*2026.149648 
102*2026.149648 102*2024.543807 
102*2024.543807 102*2022.937966 
102*2022.937966 102*2021.332125 
102*2021.332125 102*2019.726284 
102*2019.726284 102*2018.120443 
102*2018.120443 102*2016.514602 
102*2016.514602 102*2014.908761 
102*2014.908761 102*2013.302920 
102*2013.302920 102*2011.697080 
102*2011.697080 102*2010.091239 
102*2010.091239 102*2008.485398 
102*2008.485398 102*2006.879557 
102*2006.879557 102*2005.273716 
102*2005.273716 102*2003.667875 
102*2003.667875 102*2002.062034 
102*2002.062034 102*2000.456193 
102*2000.456193 102*1998.850352 
102*1998.850352 102*1997.244511 
102*1997.244511 102*1995.638670 
102*1995.638670 102*1994.032829 
102*1994.032829 102*1992.426988 
102*1992.426988 102*1990.821148 
102*1990.821148 102*1989.215307 
102*1989.215307 102*1987.609466 
102*1987.609466 102*1986.003625 
102*1986.003625 102*1984.397784 
102*1984.397784 102*1982.791943 
102*1982.791943 102*1981.186102 
102*1981.186102 102*1979.580261 
102*1979.580261 102*1977.974420 
102*1977.974420 102*1976.368579 
102*1976.368579 102*1974.762738 
102*1974.762738 102*1973.156897 
102*2057.554785 102*2055.948944 
102*2055.948944 102*2054.343103 
102*2054.343103 102*2052.737262 
102*2052.737262 102*2051.131421 
102*2051.131421 102*2049.525580 
102*2049.525580 102*2047.919739 
102*2047.919739 102*2046.313898 
102*2046.313898 102*2044.708057 
102*2044.708057 102*2043.102216 
102*2043.102216 102*2041.496375 
102*2041.496375 102*2039.890534 
102*2039.890534 102*2038.284693 
102*2038.284693 102*2036.678852 
102*2036.678852 102*2035.073012 
102*2035.073012 102*2033.467171 
102*2033.467171 102*2031.861330 
102*2031.861330 102*2030.255489 
102*2030.255489 102*2028.649648 
102*2028.649648 102*2027.043807 
102*2027.043807 102*2025.437966 
102*2025.437966 102*2023.832125 
102*2023.832125 102*2022.226284 
102*2022.226284 102*2020.620443 
102*2020.620443 102*2019.014602 
102*2019.014602 102*2017.408761 
102*2017.408761 102*2015.802920 
102*2015.802920 102*2014.197080 
102*2014.197080 102*2012.591239 
102*2012.591239 102*2010.985398 
102*2010.985398 102*2009.379557 
102*2009.379557 102*2007.773716 
102*2007.773716 102*2006.167875 
102*2006.167875 102*2004.562034 
102*2004.562034 102*2002.956193 
102*2002.956193 102*2001.350352 
102*2001.350352 102*1999.744511 
102*1999.744511 102*1998.138670 
102*1998.138670 102*1996.532829 
102*1996.532829 102*1994.926988 
102*1994.926988 102*1993.321148 
102*1993.321148 102*1991.715307 
102*1991.715307 102*1990.109466 
102*1990.109466 102*1988.503625 
102*1988.503625 102*1986.897784 
102*1986.897784 102*1985.291943 
102*1985.291943 102*1983.686102 
102*1983.686102 102*1982.080261 
102*1982.080261 102*1980.474420 
102*1980.474420 102*1978.868579 
102*1978.868579 102*1977.262738 
102*1977.262738 102*1975.656897 
102*2057.554785 102*2055.948944 
102*2055.948944 102*2054.343103 
102*2054.343103 102*2052.737262 
102*2052.737262 102*2051.131421 
102*2051.131421 102*2049.525580 
102*2049.525580 102*2047.919739 
102*2047.919739 102*2046.313898 
102*2046.313898 102*2044.708057 
102*2044.708057 102*2043.102216 
102*2043.102216 102*2041.496375 
102*2041.496375 102*2039.890534 
102*2039.890534 102*2038.284693 
102*2038.284693 102*2036.678852 
102*2036.678852 102*2035.073012 
102*2035.073012 102*2033.467171 
102*2033.467171 102*2031.861330 
102*2031.861330 102*2030.255489 
102*2030.255489 102*2028.649648 
102*2028.649648 102*2027.043807 
102*2027.043807 102*2025.437966 
102*2025.437966 102*2023.832125 
102*2023.832125 102*2022.226284 
102*2022.226284 102*2020.620443 
102*2020.620443 102*2019.014602 
102*2019.014602 102*2017.408761 
102*2017.408761 102*2015.802920 
102*2015.802920 102*2014.197080 
102*2014.197080 102*2012.591239 
102*2012.591239 102*2010.985398 
102*2010.985398 102*2009.379557 
102*2009.379557 102*2007.773716 
102*2007.773716 102*2006.167875 
102*2006.167875 102*2004.562034 
102*2004.562034 102*2002.956193 
102*2002.956193 102*2001.350352 
102*2001.350352 102*1999.744511 
102*1999.744511 102*1998.138670 
102*1998.138670 102*1996.532829 
102*1996.532829 102*1994.926988 
102*1994.926988 102*1993.321148 
102*1993.321148 102*1991.715307 
102*1991.715307 102*1990.109466 
102*1990.109466 102*1988.503625 
102*1988.503625 102*1986.897784 
102*1986.897784 102*1985.291943 
102*1985.291943 102*1983.686102 
102*1983.686102 102*1982.080261 
102*1982.080261 102*1980.474420 
102*1980.474420 102*1978.868579 
102*1978.868579 102*1977.262738 
102*1977.262738 102*1975.656897 
102*2060.054785 102*2058.448944 
102*2058.448944 102*2056.843103 
102*2056.843103 102*2055.237262 
102*2055.237262 102*2053.631421 
102*2053.631421 102*2052.025580 
102*2052.025580 102*2050.419739 
102*2050.419739 102*2048.813898 
102*2048.813898 102*2047.208057 
102*2047.208057 102*2045.602216 
102*2045.602216 102*2043.996375 
102*2043.996375 102*2042.390534 
102*2042.390534 102*2040.784693 
102*2040.784693 102*2039.178852 
102*2039.178852 102*2037.573012 
102*2037.573012 102*2035.967171 
102*2035.967171 102*2034.361330 
102*2034.361330 102*2032.755489 
102*2032.755489 102*2031.149648 
102*2031.149648 102*2029.543807 
102*2029.543807 102*2027.937966 
102*2027.937966 102*2026.332125 
102*2026.332125 102*2024.726284 
102*2024.726284 102*2023.120443 
102*2023.120443 102*2021.514602 
102*2021.514602 102*2019.908761 
102*2019.908761 102*2018.302920 
102*2018.302920 102*2016.697080 
102*2016.697080 102*2015.091239 
102*2015.091239 102*2013.485398 
102*2013.485398 102*2011.879557 
102*2011.879557 102*2010.273716 
102*2010.273716 102*2008.667875 
102*2008.667875 102*2007.062034 
102*2007.062034 102*2005.456193 
102*2005.456193 102*2003.850352 
102*2003.850352 102*2002.244511 
102*2002.244511 102*2000.638670 
102*2000.638670 102*1999.032829 
102*1999.032829 102*1997.426988 
102*1997.426988 102*1995.821148 
102*1995.821148 102*1994.215307 
102*1994.215307 102*1992.609466 
102*1992.609466 102*1991.003625 
102*1991.003625 102*1989.397784 
102*1989.397784 102*1987.791943 
102*1987.791943 102*1986.186102 
102*1986.186102 102*1984.580261 
102*1984.580261 102*1982.974420 
102*1982.974420 102*1981.368579 
102*1981.368579 102*1979.762738 
102*1979.762738 102*1978.156897 
102*2060.054785 102*2058.448944 
102*2058.448944 102*2056.843103 
102*2056.843103 102*2055.237262 
102*2055.237262 102*2053.631421 
102*2053.631421 102*2052.025580 
102*2052.025580 102*2050.419739 
102*2050.419739 102*2048.813898 
102*2048.813898 102*2047.208057 
102*2047.208057 102*2045.602216 
102*2045.602216 102*2043.996375 
102*2043.996375 102*2042.390534 
102*2042.390534 102*2040.784693 
102*2040.784693 102*2039.178852 
102*2039.178852 102*2037.573012 
102*2037.573012 102*2035.967171 
102*2035.967171 102*2034.361330 
102*2034.361330 102*2032.755489 
102*2032.755489 102*2031.149648 
102*2031.149648 102*2029.543807 
102*2029.543807 102*2027.937966 
102*2027.937966 102*2026.332125 
102*2026.332125 102*2024.726284 
102*2024.726284 102*2023.120443 
102*2023.120443 102*2021.514602 
102*2021.514602 102*2019.908761 
102*2019.908761 102*2018.302920 
102*2018.302920 102*2016.697080 
102*2016.697080 102*2015.091239 
102*2015.091239 102*2013.485398 
102*2013.485398 102*2011.879557 
102*2011.879557 102*2010.273716 
102*2010.273716 102*2008.667875 
102*2008.667875 102*2007.062034 
102*2007.062034 102*2005.456193 
102*2005.456193 102*2003.850352 
102*2003.850352 102*2002.244511 
102*2002.244511 102*2000.638670 
102*2000.638670 102*1999.032829 
102*1999.032829 102*1997.426988 
102*1997.426988 102*1995.821148 
102*1995.821148 102*1994.215307 
102*1994.215307 102*1992.609466 
102*1992.609466 102*1991.003625 
102*1991.003625 102*1989.397784 
102*1989.397784 102*1987.791943 
102*1987.791943 102*1986.186102 
102*1986.186102 102*1984.580261 
102*1984.580261 102*1982.974420 
102*1982.974420 102*1981.368579 
102*1981.368579 102*1979.762738 
102*1979.762738 102*1978.156897 
102*2062.554785 102*2060.948944 
102*2060.948944 102*2059.343103 
102*2059.343103 102*2057.737262 
102*2057.737262 102*2056.131421 
102*2056.131421 102*2054.525580 
102*2054.525580 102*2052.919739 
102*2052.919739 102*2051.313898 
102*2051.313898 102*2049.708057 
102*2049.708057 102*2048.102216 
102*2048.102216 102*2046.496375 
102*2046.496375 102*2044.890534 
102*2044.890534 102*2043.284693 
102*2043.284693 102*2041.678852 
102*2041.678852 102*2040.073012 
102*2040.073012 102*2038.467171 
102*2038.467171 102*2036.861330 
102*2036.861330 102*2035.255489 
102*2035.255489 102*2033.649648 
102*2033.649648 102*2032.043807 
102*2032.043807 102*2030.437966 
102*2030.437966 102*2028.832125 
102*2028.832125 102*2027.226284 
102*2027.226284 102*2025.620443 
102*2025.620443 102*2024.014602 
102*2024.014602 102*2022.408761 
102*2022.408761 102*2020.802920 
102*2020.802920 102*2019.197080 
102*2019.197080 102*2017.591239 
102*2017.591239 102*2015.985398 
102*2015.985398 102*2014.379557 
102*2014.379557 102*2012.773716 
102*2012.773716 102*2011.167875 
102*2011.167875 102*2009.562034 
102*2009.562034 102*2007.956193 
102*2007.956193 102*2006.350352 
102*2006.350352 102*2004.744511 
102*2004.744511 102*2003.138670 
102*2003.138670 102*2001.532829 
102*2001.532829 102*1999.926988 
102*1999.926988 102*1998.321148 
102*1998.321148 102*1996.715307 
102*1996.715307 102*1995.109466 
102*1995.109466 102*1993.503625 
102*1993.503625 102*1991.897784 
102*1991.897784 102*1990.291943 
102*1990.291943 102*1988.686102 
102*1988.686102 102*1987.080261 
102*1987.080261 102*1985.474420 
102*1985.474420 102*1983.868579 
102*1983.868579 102*1982.262738 
102*1982.262738 102*1980.656897 
102*2062.554785 102*2060.948944 
102*2060.948944 102*2059.343103 
102*2059.343103 102*2057.737262 
102*2057.737262 102*2056.131421 
102*2056.131421 102*2054.525580 
102*2054.525580 102*2052.919739 
102*2052.919739 102*2051.313898 
102*2051.313898 102*2049.708057 
102*2049.708057 102*2048.102216 
102*2048.102216 102*2046.496375 
102*2046.496375 102*2044.890534 
102*2044.890534 102*2043.284693 
102*2043.284693 102*2041.678852 
102*2041.678852 102*2040.073012 
102*2040.073012 102*2038.467171 
102*2038.467171 102*2036.861330 
102*2036.861330 102*2035.255489 
102*2035.255489 102*2033.649648 
102*2033.649648 102*2032.043807 
102*2032.043807 102*2030.437966 
102*2030.437966 102*2028.832125 
102*2028.832125 102*2027.226284 
102*2027.226284 102*2025.620443 
102*2025.620443 102*2024.014602 
102*2024.014602 102*2022.408761 
102*2022.408761 102*2020.802920 
102*2020.802920 102*2019.197080 
102*2019.197080 102*2017.591239 
102*2017.591239 102*2015.985398 
102*2015.985398 102*2014.379557 
102*2014.379557 102*2012.773716 
102*2012.773716 102*2011.167875 
102*2011.167875 102*2009.562034 
102*2009.562034 102*2007.956193 
102*2007.956193 102*2006.350352 
102*2006.350352 102*2004.744511 
102*2004.744511 102*2003.138670 
102*2003.138670 102*2001.532829 
102*2001.532829 102*1999.926988 
102*1999.926988 102*1998.321148 
102*1998.321148 102*1996.715307 
102*1996.715307 102*1995.109466 
102*1995.109466 102*1993.503625 
102*1993.503625 102*1991.897784 
102*1991.897784 102*1990.291943 
102*1990.291943 102*1988.686102 
102*1988.686102 102*1987.080261 
102*1987.080261 102*1985.474420 
102*1985.474420 102*1983.868579 
102*1983.868579 102*1982.262738 
102*1982.262738 102*1980.656897 
102*2065.054785 102*2063.448944 
102*2063.448944 102*2061.843103 
102*2061.843103 102*2060.237262 
102*2060.237262 102*2058.631421 
102*2058.631421 102*2057.025580 
102*2057.025580 102*2055.419739 
102*2055.419739 102*2053.813898 
102*2053.813898 102*2052.208057 
102*2052.208057 102*2050.602216 
102*2050.602216 102*2048.996375 
102*2048.996375 102*2047.390534 
102*2047.390534 102*2045.784693 
102*2045.784693 102*2044.178852 
102*2044.178852 102*2042.573012 
102*2042.573012 102*2040.967171 
102*2040.967171 102*2039.361330 
102*2039.361330 102*2037.755489 
102*2037.755489 102*2036.149648 
102*2036.149648 102*2034.543807 
102*2034.543807 102*2032.937966 
102*2032.937966 102*2031.332125 
102*2031.332125 102*2029.726284 
102*2029.726284 102*2028.120443 
102*2028.120443 102*2026.514602 
102*2026.514602 102*2024.908761 
102*2024.908761 102*2023.302920 
102*2023.302920 102*2021.697080 
102*2021.697080 102*2020.091239 
102*2020.091239 102*2018.485398 
102*2018.485398 102*2016.879557 
102*2016.879557 102*2015.273716 
102*2015.273716 102*2013.667875 
102*2013.667875 102*2012.062034 
102*2012.062034 102*2010.456193 
102*2010.456193 102*2008.850352 
102*2008.850352 102*2007.244511 
102*2007.244511 102*2005.638670 
102*2005.638670 102*2004.032829 
102*2004.032829 102*2002.426988 
102*2002.426988 102*2000.821148 
102*2000.821148 102*1999.215307 