ZCORN
102*2068.929865 102*2066.328738 
102*2066.328738 102*2063.727611 
102*2063.727611 102*2061.126484 
102*2061.126484 102*2058.525357 
102*2058.525357 102*2055.924230 
102*2055.924230 102*2053.323103 
102*2053.323103 102*2050.721976 
102*2050.721976 102*2048.120849 
102*2048.120849 102*2045.519722 
102*2045.519722 102*2042.918595 
102*2042.918595 102*2040.317468 
102*2040.317468 102*2037.716341 
102*2037.716341 102*2035.115214 
102*2035.115214 102*2032.514087 
102*2032.514087 102*2029.912960 
102*2029.912960 102*2027.311833 
102*2027.311833 102*2024.710706 
102*2024.710706 102*2022.109579 
102*2022.109579 102*2019.508452 
102*2019.508452 102*2016.907325 
102*2016.907325 102*2014.306198 
102*2014.306198 102*2011.705071 
102*2011.705071 102*2009.103944 
102*2009.103944 102*2006.502817 
102*2006.502817 102*2003.901690 
102*2003.901690 102*2001.300563 
102*2001.300563 102*1998.699437 
102*1998.699437 102*1996.098310 
102*1996.098310 102*1993.497183 
102*1993.497183 102*1990.896056 
102*1990.896056 102*1988.294929 
102*1988.294929 102*1985.693802 
102*1985.693802 102*1983.092675 
102*1983.092675 102*1980.491548 
102*1980.491548 102*1977.890421 
102*1977.890421 102*1975.289294 
102*1975.289294 102*1972.688167 
102*1972.688167 102*1970.087040 
102*1970.087040 102*1967.485913 
102*1967.485913 102*1964.884786 
102*1964.884786 102*1962.283659 
102*1962.283659 102*1959.682532 
102*1959.682532 102*1957.081405 
102*1957.081405 102*1954.480278 
102*1954.480278 102*1951.879151 
102*1951.879151 102*1949.278024 
102*1949.278024 102*1946.676897 
102*1946.676897 102*1944.075770 
102*1944.075770 102*1941.474643 
102*1941.474643 102*1938.873516 
102*1938.873516 102*1936.272389 
102*2071.429865 102*2068.828738 
102*2068.828738 102*2066.227611 
102*2066.227611 102*2063.626484 
102*2063.626484 102*2061.025357 
102*2061.025357 102*2058.424230 
102*2058.424230 102*2055.823103 
102*2055.823103 102*2053.221976 
102*2053.221976 102*2050.620849 
102*2050.620849 102*2048.019722 
102*2048.019722 102*2045.418595 
102*2045.418595 102*2042.817468 
102*2042.817468 102*2040.216341 
102*2040.216341 102*2037.615214 
102*2037.615214 102*2035.014087 
102*2035.014087 102*2032.412960 
102*2032.412960 102*2029.811833 
102*2029.811833 102*2027.210706 
102*2027.210706 102*2024.609579 
102*2024.609579 102*2022.008452 
102*2022.008452 102*2019.407325 
102*2019.407325 102*2016.806198 
102*2016.806198 102*2014.205071 
102*2014.205071 102*2011.603944 
102*2011.603944 102*2009.002817 
102*2009.002817 102*2006.401690 
102*2006.401690 102*2003.800563 
102*2003.800563 102*2001.199437 
102*2001.199437 102*1998.598310 
102*1998.598310 102*1995.997183 
102*1995.997183 102*1993.396056 
102*1993.396056 102*1990.794929 
102*1990.794929 102*1988.193802 
102*1988.193802 102*1985.592675 
102*1985.592675 102*1982.991548 
102*1982.991548 102*1980.390421 
102*1980.390421 102*1977.789294 
102*1977.789294 102*1975.188167 
102*1975.188167 102*1972.587040 
102*1972.587040 102*1969.985913 
102*1969.985913 102*1967.384786 
102*1967.384786 102*1964.783659 
102*1964.783659 102*1962.182532 
102*1962.182532 102*1959.581405 
102*1959.581405 102*1956.980278 
102*1956.980278 102*1954.379151 
102*1954.379151 102*1951.778024 
102*1951.778024 102*1949.176897 
102*1949.176897 102*1946.575770 
102*1946.575770 102*1943.974643 
102*1943.974643 102*1941.373516 
102*1941.373516 102*1938.772389 
102*2071.429865 102*2068.828738 
102*2068.828738 102*2066.227611 
102*2066.227611 102*2063.626484 
102*2063.626484 102*2061.025357 
102*2061.025357 102*2058.424230 
102*2058.424230 102*2055.823103 
102*2055.823103 102*2053.221976 
102*2053.221976 102*2050.620849 
102*2050.620849 102*2048.019722 
102*2048.019722 102*2045.418595 
102*2045.418595 102*2042.817468 
102*2042.817468 102*2040.216341 
102*2040.216341 102*2037.615214 
102*2037.615214 102*2035.014087 
102*2035.014087 102*2032.412960 
102*2032.412960 102*2029.811833 
102*2029.811833 102*2027.210706 
102*2027.210706 102*2024.609579 
102*2024.609579 102*2022.008452 
102*2022.008452 102*2019.407325 
102*2019.407325 102*2016.806198 
102*2016.806198 102*2014.205071 
102*2014.205071 102*2011.603944 
102*2011.603944 102*2009.002817 
102*2009.002817 102*2006.401690 
102*2006.401690 102*2003.800563 
102*2003.800563 102*2001.199437 
102*2001.199437 102*1998.598310 
102*1998.598310 102*1995.997183 
102*1995.997183 102*1993.396056 
102*1993.396056 102*1990.794929 
102*1990.794929 102*1988.193802 
102*1988.193802 102*1985.592675 
102*1985.592675 102*1982.991548 
102*1982.991548 102*1980.390421 
102*1980.390421 102*1977.789294 
102*1977.789294 102*1975.188167 
102*1975.188167 102*1972.587040 
102*1972.587040 102*1969.985913 
102*1969.985913 102*1967.384786 
102*1967.384786 102*1964.783659 
102*1964.783659 102*1962.182532 
102*1962.182532 102*1959.581405 
102*1959.581405 102*1956.980278 
102*1956.980278 102*1954.379151 
102*1954.379151 102*1951.778024 
102*1951.778024 102*1949.176897 
102*1949.176897 102*1946.575770 
102*1946.575770 102*1943.974643 
102*1943.974643 102*1941.373516 
102*1941.373516 102*1938.772389 
102*2073.929865 102*2071.328738 
102*2071.328738 102*2068.727611 
102*2068.727611 102*2066.126484 
102*2066.126484 102*2063.525357 
102*2063.525357 102*2060.924230 
102*2060.924230 102*2058.323103 
102*2058.323103 102*2055.721976 
102*2055.721976 102*2053.120849 
102*2053.120849 102*2050.519722 
102*2050.519722 102*2047.918595 
102*2047.918595 102*2045.317468 
102*2045.317468 102*2042.716341 
102*2042.716341 102*2040.115214 
102*2040.115214 102*2037.514087 
102*2037.514087 102*2034.912960 
102*2034.912960 102*2032.311833 
102*2032.311833 102*2029.710706 
102*2029.710706 102*2027.109579 
102*2027.109579 102*2024.508452 
102*2024.508452 102*2021.907325 
102*2021.907325 102*2019.306198 
102*2019.306198 102*2016.705071 
102*2016.705071 102*2014.103944 
102*2014.103944 102*2011.502817 
102*2011.502817 102*2008.901690 
102*2008.901690 102*2006.300563 
102*2006.300563 102*2003.699437 
102*2003.699437 102*2001.098310 
102*2001.098310 102*1998.497183 
102*1998.497183 102*1995.896056 
102*1995.896056 102*1993.294929 
102*1993.294929 102*1990.693802 
102*1990.693802 102*1988.092675 
102*1988.092675 102*1985.491548 
102*1985.491548 102*1982.890421 
102*1982.890421 102*1980.289294 
102*1980.289294 102*1977.688167 
102*1977.688167 102*1975.087040 
102*1975.087040 102*1972.485913 
102*1972.485913 102*1969.884786 
102*1969.884786 102*1967.283659 
102*1967.283659 102*1964.682532 
102*1964.682532 102*1962.081405 
102*1962.081405 102*1959.480278 
102*1959.480278 102*1956.879151 
102*1956.879151 102*1954.278024 
102*1954.278024 102*1951.676897 
102*1951.676897 102*1949.075770 
102*1949.075770 102*1946.474643 
102*1946.474643 102*1943.873516 
102*1943.873516 102*1941.272389 
102*2073.929865 102*2071.328738 
102*2071.328738 102*2068.727611 
102*2068.727611 102*2066.126484 
102*2066.126484 102*2063.525357 
102*2063.525357 102*2060.924230 
102*2060.924230 102*2058.323103 
102*2058.323103 102*2055.721976 
102*2055.721976 102*2053.120849 
102*2053.120849 102*2050.519722 
102*2050.519722 102*2047.918595 
102*2047.918595 102*2045.317468 
102*2045.317468 102*2042.716341 
102*2042.716341 102*2040.115214 
102*2040.115214 102*2037.514087 
102*2037.514087 102*2034.912960 
102*2034.912960 102*2032.311833 
102*2032.311833 102*2029.710706 
102*2029.710706 102*2027.109579 
102*2027.109579 102*2024.508452 
102*2024.508452 102*2021.907325 
102*2021.907325 102*2019.306198 
102*2019.306198 102*2016.705071 
102*2016.705071 102*2014.103944 
102*2014.103944 102*2011.502817 
102*2011.502817 102*2008.901690 
102*2008.901690 102*2006.300563 
102*2006.300563 102*2003.699437 
102*2003.699437 102*2001.098310 
102*2001.098310 102*1998.497183 
102*1998.497183 102*1995.896056 
102*1995.896056 102*1993.294929 
102*1993.294929 102*1990.693802 
102*1990.693802 102*1988.092675 
102*1988.092675 102*1985.491548 
102*1985.491548 102*1982.890421 
102*1982.890421 102*1980.289294 
102*1980.289294 102*1977.688167 
102*1977.688167 102*1975.087040 
102*1975.087040 102*1972.485913 
102*1972.485913 102*1969.884786 
102*1969.884786 102*1967.283659 
102*1967.283659 102*1964.682532 
102*1964.682532 102*1962.081405 
102*1962.081405 102*1959.480278 
102*1959.480278 102*1956.879151 
102*1956.879151 102*1954.278024 
102*1954.278024 102*1951.676897 
102*1951.676897 102*1949.075770 
102*1949.075770 102*1946.474643 
102*1946.474643 102*1943.873516 
102*1943.873516 102*1941.272389 
102*2076.429865 102*2073.828738 
102*2073.828738 102*2071.227611 
102*2071.227611 102*2068.626484 
102*2068.626484 102*2066.025357 
102*2066.025357 102*2063.424230 
102*2063.424230 102*2060.823103 
102*2060.823103 102*2058.221976 
102*2058.221976 102*2055.620849 
102*2055.620849 102*2053.019722 
102*2053.019722 102*2050.418595 
102*2050.418595 102*2047.817468 
102*2047.817468 102*2045.216341 
102*2045.216341 102*2042.615214 
102*2042.615214 102*2040.014087 
102*2040.014087 102*2037.412960 
102*2037.412960 102*2034.811833 
102*2034.811833 102*2032.210706 
102*2032.210706 102*2029.609579 
102*2029.609579 102*2027.008452 
102*2027.008452 102*2024.407325 
102*2024.407325 102*2021.806198 
102*2021.806198 102*2019.205071 
102*2019.205071 102*2016.603944 
102*2016.603944 102*2014.002817 
102*2014.002817 102*2011.401690 
102*2011.401690 102*2008.800563 
102*2008.800563 102*2006.199437 
102*2006.199437 102*2003.598310 
102*2003.598310 102*2000.997183 
102*2000.997183 102*1998.396056 
102*1998.396056 102*1995.794929 
102*1995.794929 102*1993.193802 
102*1993.193802 102*1990.592675 
102*1990.592675 102*1987.991548 
102*1987.991548 102*1985.390421 
102*1985.390421 102*1982.789294 
102*1982.789294 102*1980.188167 
102*1980.188167 102*1977.587040 
102*1977.587040 102*1974.985913 
102*1974.985913 102*1972.384786 
102*1972.384786 102*1969.783659 
102*1969.783659 102*1967.182532 
102*1967.182532 102*1964.581405 
102*1964.581405 102*1961.980278 
102*1961.980278 102*1959.379151 
102*1959.379151 102*1956.778024 
102*1956.778024 102*1954.176897 
102*1954.176897 102*1951.575770 
102*1951.575770 102*1948.974643 
102*1948.974643 102*1946.373516 
102*1946.373516 102*1943.772389 
102*2076.429865 102*2073.828738 
102*2073.828738 102*2071.227611 
102*2071.227611 102*2068.626484 
102*2068.626484 102*2066.025357 
102*2066.025357 102*2063.424230 
102*2063.424230 102*2060.823103 
102*2060.823103 102*2058.221976 
102*2058.221976 102*2055.620849 
102*2055.620849 102*2053.019722 
102*2053.019722 102*2050.418595 
102*2050.418595 102*2047.817468 
102*2047.817468 102*2045.216341 
102*2045.216341 102*2042.615214 
102*2042.615214 102*2040.014087 
102*2040.014087 102*2037.412960 
102*2037.412960 102*2034.811833 
102*2034.811833 102*2032.210706 
102*2032.210706 102*2029.609579 
102*2029.609579 102*2027.008452 
102*2027.008452 102*2024.407325 
102*2024.407325 102*2021.806198 
102*2021.806198 102*2019.205071 
102*2019.205071 102*2016.603944 
102*2016.603944 102*2014.002817 
102*2014.002817 102*2011.401690 
102*2011.401690 102*2008.800563 
102*2008.800563 102*2006.199437 
102*2006.199437 102*2003.598310 
102*2003.598310 102*2000.997183 
102*2000.997183 102*1998.396056 
102*1998.396056 102*1995.794929 
102*1995.794929 102*1993.193802 
102*1993.193802 102*1990.592675 
102*1990.592675 102*1987.991548 
102*1987.991548 102*1985.390421 
102*1985.390421 102*1982.789294 
102*1982.789294 102*1980.188167 
102*1980.188167 102*1977.587040 
102*1977.587040 102*1974.985913 
102*1974.985913 102*1972.384786 
102*1972.384786 102*1969.783659 
102*1969.783659 102*1967.182532 
102*1967.182532 102*1964.581405 
102*1964.581405 102*1961.980278 
102*1961.980278 102*1959.379151 
102*1959.379151 102*1956.778024 
102*1956.778024 102*1954.176897 
102*1954.176897 102*1951.575770 
102*1951.575770 102*1948.974643 
102*1948.974643 102*1946.373516 
102*1946.373516 102*1943.772389 
102*2078.929865 102*2076.328738 
102*2076.328738 102*2073.727611 
102*2073.727611 102*2071.126484 
102*2071.126484 102*2068.525357 
102*2068.525357 102*2065.924230 
102*2065.924230 102*2063.323103 
102*2063.323103 102*2060.721976 
102*2060.721976 102*2058.120849 
102*2058.120849 102*2055.519722 
102*2055.519722 102*2052.918595 
102*2052.918595 102*2050.317468 
102*2050.317468 102*2047.716341 
102*2047.716341 102*2045.115214 
102*2045.115214 102*2042.514087 
102*2042.514087 102*2039.912960 
102*2039.912960 102*2037.311833 
102*2037.311833 102*2034.710706 
102*2034.710706 102*2032.109579 
102*2032.109579 102*2029.508452 
102*2029.508452 102*2026.907325 
102*2026.907325 102*2024.306198 
102*2024.306198 102*2021.705071 
102*2021.705071 102*2019.103944 
102*2019.103944 102*2016.502817 
102*2016.502817 102*2013.901690 
102*2013.901690 102*2011.300563 
102*2011.300563 102*2008.699437 
102*2008.699437 102*2006.098310 
102*2006.098310 102*2003.497183 
102*2003.497183 102*2000.896056 
102*2000.896056 102*1998.294929 
102*1998.294929 102*1995.693802 
102*1995.693802 102*1993.092675 
102*1993.092675 102*1990.491548 
102*1990.491548 102*1987.890421 
102*1987.890421 102*1985.289294 
102*1985.289294 102*1982.688167 
102*1982.688167 102*1980.087040 
102*1980.087040 102*1977.485913 
102*1977.485913 102*1974.884786 
102*1974.884786 102*1972.283659 
102*1972.283659 102*1969.682532 
102*1969.682532 102*1967.081405 
102*1967.081405 102*1964.480278 
102*1964.480278 102*1961.879151 
102*1961.879151 102*1959.278024 
102*1959.278024 102*1956.676897 
102*1956.676897 102*1954.075770 
102*1954.075770 102*1951.474643 
102*1951.474643 102*1948.873516 
102*1948.873516 102*1946.272389 
102*2078.929865 102*2076.328738 
102*2076.328738 102*2073.727611 
102*2073.727611 102*2071.126484 
102*2071.126484 102*2068.525357 
102*2068.525357 102*2065.924230 
102*2065.924230 102*2063.323103 
102*2063.323103 102*2060.721976 
102*2060.721976 102*2058.120849 
102*2058.120849 102*2055.519722 
102*2055.519722 102*2052.918595 
102*2052.918595 102*2050.317468 
102*2050.317468 102*2047.716341 
102*2047.716341 102*2045.115214 
102*2045.115214 102*2042.514087 
102*2042.514087 102*2039.912960 
102*2039.912960 102*2037.311833 
102*2037.311833 102*2034.710706 
102*2034.710706 102*2032.109579 
102*2032.109579 102*2029.508452 
102*2029.508452 102*2026.907325 
102*2026.907325 102*2024.306198 
102*2024.306198 102*2021.705071 
102*2021.705071 102*2019.103944 
102*2019.103944 102*2016.502817 
102*2016.502817 102*2013.901690 
102*2013.901690 102*2011.300563 
102*2011.300563 102*2008.699437 
102*2008.699437 102*2006.098310 
102*2006.098310 102*2003.497183 
102*2003.497183 102*2000.896056 
102*2000.896056 102*1998.294929 
102*1998.294929 102*1995.693802 
102*1995.693802 102*1993.092675 
102*1993.092675 102*1990.491548 
102*1990.491548 102*1987.890421 
102*1987.890421 102*1985.289294 
102*1985.289294 102*1982.688167 
102*1982.688167 102*1980.087040 
102*1980.087040 102*1977.485913 
102*1977.485913 102*1974.884786 
102*1974.884786 102*1972.283659 
102*1972.283659 102*1969.682532 
102*1969.682532 102*1967.081405 
102*1967.081405 102*1964.480278 
102*1964.480278 102*1961.879151 
102*1961.879151 102*1959.278024 
102*1959.278024 102*1956.676897 
102*1956.676897 102*1954.075770 
102*1954.075770 102*1951.474643 
102*1951.474643 102*1948.873516 
102*1948.873516 102*1946.272389 
102*2081.429865 102*2078.828738 
102*2078.828738 102*2076.227611 
102*2076.227611 102*2073.626484 
102*2073.626484 102*2071.025357 
102*2071.025357 102*2068.424230 
102*2068.424230 102*2065.823103 
102*2065.823103 102*2063.221976 
102*2063.221976 102*2060.620849 
102*2060.620849 102*2058.019722 
102*2058.019722 102*2055.418595 
102*2055.418595 102*2052.817468 
102*2052.817468 102*2050.216341 
102*2050.216341 102*2047.615214 
102*2047.615214 102*2045.014087 
102*2045.014087 102*2042.412960 
102*2042.412960 102*2039.811833 
102*2039.811833 102*2037.210706 
102*2037.210706 102*2034.609579 
102*2034.609579 102*2032.008452 
102*2032.008452 102*2029.407325 
102*2029.407325 102*2026.806198 
102*2026.806198 102*2024.205071 
102*2024.205071 102*2021.603944 
102*2021.603944 102*2019.002817 
102*2019.002817 102*2016.401690 
102*2016.401690 102*2013.800563 
102*2013.800563 102*2011.199437 
102*2011.199437 102*2008.598310 
102*2008.598310 102*2005.997183 
102*2005.997183 102*2003.396056 
102*2003.396056 102*2000.794929 
102*2000.794929 102*1998.193802 
102*1998.193802 102*1995.592675 
102*1995.592675 102*1992.991548 
102*1992.991548 102*1990.390421 
102*1990.390421 102*1987.789294 
102*1987.789294 102*1985.188167 
102*1985.188167 102*1982.587040 
102*1982.587040 102*1979.985913 
102*1979.985913 102*1977.384786 
102*1977.384786 102*1974.783659 
102*1974.783659 102*1972.182532 
102*1972.182532 102*1969.581405 
102*1969.581405 102*1966.980278 
102*1966.980278 102*1964.379151 
102*1964.379151 102*1961.778024 
102*1961.778024 102*1959.176897 
102*1959.176897 102*1956.575770 
102*1956.575770 102*1953.974643 
102*1953.974643 102*1951.373516 
102*1951.373516 102*1948.772389 
102*2081.429865 102*2078.828738 
102*2078.828738 102*2076.227611 
102*2076.227611 102*2073.626484 
102*2073.626484 102*2071.025357 
102*2071.025357 102*2068.424230 
102*2068.424230 102*2065.823103 
102*2065.823103 102*2063.221976 
102*2063.221976 102*2060.620849 
102*2060.620849 102*2058.019722 
102*2058.019722 102*2055.418595 
102*2055.418595 102*2052.817468 
102*2052.817468 102*2050.216341 
102*2050.216341 102*2047.615214 
102*2047.615214 102*2045.014087 
102*2045.014087 102*2042.412960 
102*2042.412960 102*2039.811833 
102*2039.811833 102*2037.210706 
102*2037.210706 102*2034.609579 
102*2034.609579 102*2032.008452 
102*2032.008452 102*2029.407325 
102*2029.407325 102*2026.806198 
102*2026.806198 102*2024.205071 
102*2024.205071 102*2021.603944 
102*2021.603944 102*2019.002817 
102*2019.002817 102*2016.401690 
102*2016.401690 102*2013.800563 
102*2013.800563 102*2011.199437 
102*2011.199437 102*2008.598310 
102*2008.598310 102*2005.997183 
102*2005.997183 102*2003.396056 
102*2003.396056 102*2000.794929 
102*2000.794929 102*1998.193802 
102*1998.193802 102*1995.592675 
102*1995.592675 102*1992.991548 
102*1992.991548 102*1990.390421 
102*1990.390421 102*1987.789294 
102*1987.789294 102*1985.188167 
102*1985.188167 102*1982.587040 
102*1982.587040 102*1979.985913 
102*1979.985913 102*1977.384786 
102*1977.384786 102*1974.783659 
102*1974.783659 102*1972.182532 
102*1972.182532 102*1969.581405 
102*1969.581405 102*1966.980278 
102*1966.980278 102*1964.379151 
102*1964.379151 102*1961.778024 
102*1961.778024 102*1959.176897 
102*1959.176897 102*1956.575770 
102*1956.575770 102*1953.974643 
102*1953.974643 102*1951.373516 
102*1951.373516 102*1948.772389 
102*2083.929865 102*2081.328738 
102*2081.328738 102*2078.727611 
102*2078.727611 102*2076.126484 
102*2076.126484 102*2073.525357 
102*2073.525357 102*2070.924230 
102*2070.924230 102*2068.323103 
102*2068.323103 102*2065.721976 
102*2065.721976 102*2063.120849 
102*2063.120849 102*2060.519722 
102*2060.519722 102*2057.918595 
102*2057.918595 102*2055.317468 
102*2055.317468 102*2052.716341 
102*2052.716341 102*2050.115214 
102*2050.115214 102*2047.514087 
102*2047.514087 102*2044.912960 
102*2044.912960 102*2042.311833 
102*2042.311833 102*2039.710706 
102*2039.710706 102*2037.109579 
102*2037.109579 102*2034.508452 
102*2034.508452 102*2031.907325 
102*2031.907325 102*2029.306198 
102*2029.306198 102*2026.705071 
102*2026.705071 102*2024.103944 
102*2024.103944 102*2021.502817 
102*2021.502817 102*2018.901690 
102*2018.901690 102*2016.300563 
102*2016.300563 102*2013.699437 
102*2013.699437 102*2011.098310 
102*2011.098310 102*2008.497183 
102*2008.497183 102*2005.896056 
102*2005.896056 102*2003.294929 
102*2003.294929 102*2000.693802 
102*2000.693802 102*1998.092675 
102*1998.092675 102*1995.491548 
102*1995.491548 102*1992.890421 
102*1992.890421 102*1990.289294 
102*1990.289294 102*1987.688167 
102*1987.688167 102*1985.087040 
102*1985.087040 102*1982.485913 
102*1982.485913 102*1979.884786 
102*1979.884786 102*1977.283659 
102*1977.283659 102*1974.682532 
102*1974.682532 102*1972.081405 
102*1972.081405 102*1969.480278 
102*1969.480278 102*1966.879151 
102*1966.879151 102*1964.278024 
102*1964.278024 102*1961.676897 
102*1961.676897 102*1959.075770 
102*1959.075770 102*1956.474643 
102*1956.474643 102*1953.873516 
102*1953.873516 102*1951.272389 
102*2083.929865 102*2081.328738 
102*2081.328738 102*2078.727611 
102*2078.727611 102*2076.126484 
102*2076.126484 102*2073.525357 
102*2073.525357 102*2070.924230 
102*2070.924230 102*2068.323103 
102*2068.323103 102*2065.721976 
102*2065.721976 102*2063.120849 
102*2063.120849 102*2060.519722 
102*2060.519722 102*2057.918595 
102*2057.918595 102*2055.317468 
102*2055.317468 102*2052.716341 
102*2052.716341 102*2050.115214 
102*2050.115214 102*2047.514087 
102*2047.514087 102*2044.912960 
102*2044.912960 102*2042.311833 
102*2042.311833 102*2039.710706 
102*2039.710706 102*2037.109579 
102*2037.109579 102*2034.508452 
102*2034.508452 102*2031.907325 
102*2031.907325 102*2029.306198 
102*2029.306198 102*2026.705071 
102*2026.705071 102*2024.103944 
102*2024.103944 102*2021.502817 
102*2021.502817 102*2018.901690 
102*2018.901690 102*2016.300563 
102*2016.300563 102*2013.699437 
102*2013.699437 102*2011.098310 
102*2011.098310 102*2008.497183 
102*2008.497183 102*2005.896056 
102*2005.896056 102*2003.294929 
102*2003.294929 102*2000.693802 
102*2000.693802 102*1998.092675 
102*1998.092675 102*1995.491548 
102*1995.491548 102*1992.890421 
102*1992.890421 102*1990.289294 
102*1990.289294 102*1987.688167 
102*1987.688167 102*1985.087040 
102*1985.087040 102*1982.485913 
102*1982.485913 102*1979.884786 
102*1979.884786 102*1977.283659 
102*1977.283659 102*1974.682532 
102*1974.682532 102*1972.081405 
102*1972.081405 102*1969.480278 
102*1969.480278 102*1966.879151 
102*1966.879151 102*1964.278024 
102*1964.278024 102*1961.676897 
102*1961.676897 102*1959.075770 
102*1959.075770 102*1956.474643 
102*1956.474643 102*1953.873516 
102*1953.873516 102*1951.272389 
102*2086.429865 102*2083.828738 
102*2083.828738 102*2081.227611 
102*2081.227611 102*2078.626484 
102*2078.626484 102*2076.025357 
102*2076.025357 102*2073.424230 
102*2073.424230 102*2070.823103 
102*2070.823103 102*2068.221976 
102*2068.221976 102*2065.620849 
102*2065.620849 102*2063.019722 
102*2063.019722 102*2060.418595 
102*2060.418595 102*2057.817468 
102*2057.817468 102*2055.216341 
102*2055.216341 102*2052.615214 
102*2052.615214 102*2050.014087 
102*2050.014087 102*2047.412960 
102*2047.412960 102*2044.811833 
102*2044.811833 102*2042.210706 
102*2042.210706 102*2039.609579 
102*2039.609579 102*2037.008452 
102*2037.008452 102*2034.407325 
102*2034.407325 102*2031.806198 
102*2031.806198 102*2029.205071 
102*2029.205071 102*2026.603944 
102*2026.603944 102*2024.002817 
102*2024.002817 102*2021.401690 
102*2021.401690 102*2018.800563 
102*2018.800563 102*2016.199437 
102*2016.199437 102*2013.598310 
102*2013.598310 102*2010.997183 
102*2010.997183 102*2008.396056 
102*2008.396056 102*2005.794929 
102*2005.794929 102*2003.193802 
102*2003.193802 102*2000.592675 
102*2000.592675 102*1997.991548 
102*1997.991548 102*1995.390421 
102*1995.390421 102*1992.789294 
102*1992.789294 102*1990.188167 
102*1990.188167 102*1987.587040 
102*1987.587040 102*1984.985913 
102*1984.985913 102*1982.384786 
102*1982.384786 102*1979.783659 
102*1979.783659 102*1977.182532 
102*1977.182532 102*1974.581405 
102*1974.581405 102*1971.980278 
102*1971.980278 102*1969.379151 
102*1969.379151 102*1966.778024 
102*1966.778024 102*1964.176897 
102*1964.176897 102*1961.575770 
102*1961.575770 102*1958.974643 
102*1958.974643 102*1956.373516 
102*1956.373516 102*1953.772389 
102*2086.429865 102*2083.828738 
102*2083.828738 102*2081.227611 
102*2081.227611 102*2078.626484 
102*2078.626484 102*2076.025357 
102*2076.025357 102*2073.424230 
102*2073.424230 102*2070.823103 
102*2070.823103 102*2068.221976 
102*2068.221976 102*2065.620849 
102*2065.620849 102*2063.019722 
102*2063.019722 102*2060.418595 
102*2060.418595 102*2057.817468 
102*2057.817468 102*2055.216341 
102*2055.216341 102*2052.615214 
102*2052.615214 102*2050.014087 
102*2050.014087 102*2047.412960 
102*2047.412960 102*2044.811833 
102*2044.811833 102*2042.210706 
102*2042.210706 102*2039.609579 
102*2039.609579 102*2037.008452 
102*2037.008452 102*2034.407325 
102*2034.407325 102*2031.806198 
102*2031.806198 102*2029.205071 
102*2029.205071 102*2026.603944 
102*2026.603944 102*2024.002817 
102*2024.002817 102*2021.401690 
102*2021.401690 102*2018.800563 
102*2018.800563 102*2016.199437 
102*2016.199437 102*2013.598310 
102*2013.598310 102*2010.997183 
102*2010.997183 102*2008.396056 
102*2008.396056 102*2005.794929 
102*2005.794929 102*2003.193802 
102*2003.193802 102*2000.592675 
102*2000.592675 102*1997.991548 
102*1997.991548 102*1995.390421 
102*1995.390421 102*1992.789294 
102*1992.789294 102*1990.188167 
102*1990.188167 102*1987.587040 
102*1987.587040 102*1984.985913 
102*1984.985913 102*1982.384786 
102*1982.384786 102*1979.783659 
102*1979.783659 102*1977.182532 
102*1977.182532 102*1974.581405 
102*1974.581405 102*1971.980278 
102*1971.980278 102*1969.379151 
102*1969.379151 102*1966.778024 
102*1966.778024 102*1964.176897 
102*1964.176897 102*1961.575770 
102*1961.575770 102*1958.974643 
102*1958.974643 102*1956.373516 
102*1956.373516 102*1953.772389 
102*2088.929865 102*2086.328738 
102*2086.328738 102*2083.727611 
102*2083.727611 102*2081.126484 
102*2081.126484 102*2078.525357 
102*2078.525357 102*2075.924230 
102*2075.924230 102*2073.323103 
102*2073.323103 102*2070.721976 
102*2070.721976 102*2068.120849 
102*2068.120849 102*2065.519722 
102*2065.519722 102*2062.918595 
102*2062.918595 102*2060.317468 
102*2060.317468 102*2057.716341 
102*2057.716341 102*2055.115214 
102*2055.115214 102*2052.514087 
102*2052.514087 102*2049.912960 
102*2049.912960 102*2047.311833 
102*2047.311833 102*2044.710706 
102*2044.710706 102*2042.109579 
102*2042.109579 102*2039.508452 
102*2039.508452 102*2036.907325 
102*2036.907325 102*2034.306198 
102*2034.306198 102*2031.705071 
102*2031.705071 102*2029.103944 
102*2029.103944 102*2026.502817 
102*2026.502817 102*2023.901690 
102*2023.901690 102*2021.300563 
102*2021.300563 102*2018.699437 
102*2018.699437 102*2016.098310 
102*2016.098310 102*2013.497183 
102*2013.497183 102*2010.896056 
102*2010.896056 102*2008.294929 
102*2008.294929 102*2005.693802 
102*2005.693802 102*2003.092675 
102*2003.092675 102*2000.491548 
102*2000.491548 102*1997.890421 
102*1997.890421 102*1995.289294 
102*1995.289294 102*1992.688167 
102*1992.688167 102*1990.087040 
102*1990.087040 102*1987.485913 
102*1987.485913 102*1984.884786 
102*1984.884786 102*1982.283659 
102*1982.283659 102*1979.682532 
102*1979.682532 102*1977.081405 
102*1977.081405 102*1974.480278 
102*1974.480278 102*1971.879151 
102*1971.879151 102*1969.278024 
102*1969.278024 102*1966.676897 
102*1966.676897 102*1964.075770 
102*1964.075770 102*1961.474643 
102*1961.474643 102*1958.873516 
102*1958.873516 102*1956.272389 
102*2088.929865 102*2086.328738 
102*2086.328738 102*2083.727611 
102*2083.727611 102*2081.126484 
102*2081.126484 102*2078.525357 
102*2078.525357 102*2075.924230 
102*2075.924230 102*2073.323103 
102*2073.323103 102*2070.721976 
102*2070.721976 102*2068.120849 
102*2068.120849 102*2065.519722 
102*2065.519722 102*2062.918595 
102*2062.918595 102*2060.317468 
102*2060.317468 102*2057.716341 
102*2057.716341 102*2055.115214 
102*2055.115214 102*2052.514087 
102*2052.514087 102*2049.912960 
102*2049.912960 102*2047.311833 
102*2047.311833 102*2044.710706 
102*2044.710706 102*2042.109579 
102*2042.109579 102*2039.508452 
102*2039.508452 102*2036.907325 
102*2036.907325 102*2034.306198 
102*2034.306198 102*2031.705071 
102*2031.705071 102*2029.103944 
102*2029.103944 102*2026.502817 
102*2026.502817 102*2023.901690 
102*2023.901690 102*2021.300563 
102*2021.300563 102*2018.699437 
102*2018.699437 102*2016.098310 
102*2016.098310 102*2013.497183 
102*2013.497183 102*2010.896056 
102*2010.896056 102*2008.294929 
102*2008.294929 102*2005.693802 
102*2005.693802 102*2003.092675 
102*2003.092675 102*2000.491548 
102*2000.491548 102*1997.890421 
102*1997.890421 102*1995.289294 
102*1995.289294 102*1992.688167 
102*1992.688167 102*1990.087040 
102*1990.087040 102*1987.485913 
102*1987.485913 102*1984.884786 
102*1984.884786 102*1982.283659 
102*1982.283659 102*1979.682532 
102*1979.682532 102*1977.081405 
102*1977.081405 102*1974.480278 
102*1974.480278 102*1971.879151 
102*1971.879151 102*1969.278024 
102*1969.278024 102*1966.676897 
102*1966.676897 102*1964.075770 
102*1964.075770 102*1961.474643 
102*1961.474643 102*1958.873516 
102*1958.873516 102*1956.272389 
102*2091.429865 102*2088.828738 
102*2088.828738 102*2086.227611 
102*2086.227611 102*2083.626484 
102*2083.626484 102*2081.025357 
102*2081.025357 102*2078.424230 
102*2078.424230 102*2075.823103 
102*2075.823103 102*2073.221976 
102*2073.221976 102*2070.620849 
102*2070.620849 102*2068.019722 
102*2068.019722 102*2065.418595 
102*2065.418595 102*2062.817468 
102*2062.817468 102*2060.216341 
102*2060.216341 102*2057.615214 
102*2057.615214 102*2055.014087 
102*2055.014087 102*2052.412960 
102*2052.412960 102*2049.811833 
102*2049.811833 102*2047.210706 
102*2047.210706 102*2044.609579 
102*2044.609579 102*2042.008452 
102*2042.008452 102*2039.407325 
102*2039.407325 102*2036.806198 
102*2036.806198 102*2034.205071 
102*2034.205071 102*2031.603944 
102*2031.603944 102*2029.002817 
102*2029.002817 102*2026.401690 
102*2026.401690 102*2023.800563 
102*2023.800563 102*2021.199437 
102*2021.199437 102*2018.598310 
102*2018.598310 102*2015.997183 
102*2015.997183 102*2013.396056 
102*2013.396056 102*2010.794929 
102*2010.794929 102*2008.193802 
102*2008.193802 102*2005.592675 
102*2005.592675 102*2002.991548 
102*2002.991548 102*2000.390421 
102*2000.390421 102*1997.789294 
102*1997.789294 102*1995.188167 
102*1995.188167 102*1992.587040 
102*1992.587040 102*1989.985913 
102*1989.985913 102*1987.384786 
102*1987.384786 102*1984.783659 