ZCORN
102*2094.855492 102*2091.276039 
102*2091.276039 102*2087.696587 
102*2087.696587 102*2084.117134 
102*2084.117134 102*2080.537682 
102*2080.537682 102*2076.958229 
102*2076.958229 102*2073.378777 
102*2073.378777 102*2069.799324 
102*2069.799324 102*2066.219872 
102*2066.219872 102*2062.640419 
102*2062.640419 102*2059.060966 
102*2059.060966 102*2055.481514 
102*2055.481514 102*2051.902061 
102*2051.902061 102*2048.322609 
102*2048.322609 102*2044.743156 
102*2044.743156 102*2041.163704 
102*2041.163704 102*2037.584251 
102*2037.584251 102*2034.004799 
102*2034.004799 102*2030.425346 
102*2030.425346 102*2026.845894 
102*2026.845894 102*2023.266441 
102*2023.266441 102*2019.686989 
102*2019.686989 102*2016.107536 
102*2016.107536 102*2012.528084 
102*2012.528084 102*2008.948631 
102*2008.948631 102*2005.369179 
102*2005.369179 102*2001.789726 
102*2001.789726 102*1998.210274 
102*1998.210274 102*1994.630821 
102*1994.630821 102*1991.051369 
102*1991.051369 102*1987.471916 
102*1987.471916 102*1983.892464 
102*1983.892464 102*1980.313011 
102*1980.313011 102*1976.733559 
102*1976.733559 102*1973.154106 
102*1973.154106 102*1969.574654 
102*1969.574654 102*1965.995201 
102*1965.995201 102*1962.415749 
102*1962.415749 102*1958.836296 
102*1958.836296 102*1955.256844 
102*1955.256844 102*1951.677391 
102*1951.677391 102*1948.097939 
102*1948.097939 102*1944.518486 
102*1944.518486 102*1940.939034 
102*1940.939034 102*1937.359581 
102*1937.359581 102*1933.780128 
102*1933.780128 102*1930.200676 
102*1930.200676 102*1926.621223 
102*1926.621223 102*1923.041771 
102*1923.041771 102*1919.462318 
102*1919.462318 102*1915.882866 
102*1915.882866 102*1912.303413 
102*2097.355492 102*2093.776039 
102*2093.776039 102*2090.196587 
102*2090.196587 102*2086.617134 
102*2086.617134 102*2083.037682 
102*2083.037682 102*2079.458229 
102*2079.458229 102*2075.878777 
102*2075.878777 102*2072.299324 
102*2072.299324 102*2068.719872 
102*2068.719872 102*2065.140419 
102*2065.140419 102*2061.560966 
102*2061.560966 102*2057.981514 
102*2057.981514 102*2054.402061 
102*2054.402061 102*2050.822609 
102*2050.822609 102*2047.243156 
102*2047.243156 102*2043.663704 
102*2043.663704 102*2040.084251 
102*2040.084251 102*2036.504799 
102*2036.504799 102*2032.925346 
102*2032.925346 102*2029.345894 
102*2029.345894 102*2025.766441 
102*2025.766441 102*2022.186989 
102*2022.186989 102*2018.607536 
102*2018.607536 102*2015.028084 
102*2015.028084 102*2011.448631 
102*2011.448631 102*2007.869179 
102*2007.869179 102*2004.289726 
102*2004.289726 102*2000.710274 
102*2000.710274 102*1997.130821 
102*1997.130821 102*1993.551369 
102*1993.551369 102*1989.971916 
102*1989.971916 102*1986.392464 
102*1986.392464 102*1982.813011 
102*1982.813011 102*1979.233559 
102*1979.233559 102*1975.654106 
102*1975.654106 102*1972.074654 
102*1972.074654 102*1968.495201 
102*1968.495201 102*1964.915749 
102*1964.915749 102*1961.336296 
102*1961.336296 102*1957.756844 
102*1957.756844 102*1954.177391 
102*1954.177391 102*1950.597939 
102*1950.597939 102*1947.018486 
102*1947.018486 102*1943.439034 
102*1943.439034 102*1939.859581 
102*1939.859581 102*1936.280128 
102*1936.280128 102*1932.700676 
102*1932.700676 102*1929.121223 
102*1929.121223 102*1925.541771 
102*1925.541771 102*1921.962318 
102*1921.962318 102*1918.382866 
102*1918.382866 102*1914.803413 
102*2097.355492 102*2093.776039 
102*2093.776039 102*2090.196587 
102*2090.196587 102*2086.617134 
102*2086.617134 102*2083.037682 
102*2083.037682 102*2079.458229 
102*2079.458229 102*2075.878777 
102*2075.878777 102*2072.299324 
102*2072.299324 102*2068.719872 
102*2068.719872 102*2065.140419 
102*2065.140419 102*2061.560966 
102*2061.560966 102*2057.981514 
102*2057.981514 102*2054.402061 
102*2054.402061 102*2050.822609 
102*2050.822609 102*2047.243156 
102*2047.243156 102*2043.663704 
102*2043.663704 102*2040.084251 
102*2040.084251 102*2036.504799 
102*2036.504799 102*2032.925346 
102*2032.925346 102*2029.345894 
102*2029.345894 102*2025.766441 
102*2025.766441 102*2022.186989 
102*2022.186989 102*2018.607536 
102*2018.607536 102*2015.028084 
102*2015.028084 102*2011.448631 
102*2011.448631 102*2007.869179 
102*2007.869179 102*2004.289726 
102*2004.289726 102*2000.710274 
102*2000.710274 102*1997.130821 
102*1997.130821 102*1993.551369 
102*1993.551369 102*1989.971916 
102*1989.971916 102*1986.392464 
102*1986.392464 102*1982.813011 
102*1982.813011 102*1979.233559 
102*1979.233559 102*1975.654106 
102*1975.654106 102*1972.074654 
102*1972.074654 102*1968.495201 
102*1968.495201 102*1964.915749 
102*1964.915749 102*1961.336296 
102*1961.336296 102*1957.756844 
102*1957.756844 102*1954.177391 
102*1954.177391 102*1950.597939 
102*1950.597939 102*1947.018486 
102*1947.018486 102*1943.439034 
102*1943.439034 102*1939.859581 
102*1939.859581 102*1936.280128 
102*1936.280128 102*1932.700676 
102*1932.700676 102*1929.121223 
102*1929.121223 102*1925.541771 
102*1925.541771 102*1921.962318 
102*1921.962318 102*1918.382866 
102*1918.382866 102*1914.803413 
102*2099.855492 102*2096.276039 
102*2096.276039 102*2092.696587 
102*2092.696587 102*2089.117134 
102*2089.117134 102*2085.537682 
102*2085.537682 102*2081.958229 
102*2081.958229 102*2078.378777 
102*2078.378777 102*2074.799324 
102*2074.799324 102*2071.219872 
102*2071.219872 102*2067.640419 
102*2067.640419 102*2064.060966 
102*2064.060966 102*2060.481514 
102*2060.481514 102*2056.902061 
102*2056.902061 102*2053.322609 
102*2053.322609 102*2049.743156 
102*2049.743156 102*2046.163704 
102*2046.163704 102*2042.584251 
102*2042.584251 102*2039.004799 
102*2039.004799 102*2035.425346 
102*2035.425346 102*2031.845894 
102*2031.845894 102*2028.266441 
102*2028.266441 102*2024.686989 
102*2024.686989 102*2021.107536 
102*2021.107536 102*2017.528084 
102*2017.528084 102*2013.948631 
102*2013.948631 102*2010.369179 
102*2010.369179 102*2006.789726 
102*2006.789726 102*2003.210274 
102*2003.210274 102*1999.630821 
102*1999.630821 102*1996.051369 
102*1996.051369 102*1992.471916 
102*1992.471916 102*1988.892464 
102*1988.892464 102*1985.313011 
102*1985.313011 102*1981.733559 
102*1981.733559 102*1978.154106 
102*1978.154106 102*1974.574654 
102*1974.574654 102*1970.995201 
102*1970.995201 102*1967.415749 
102*1967.415749 102*1963.836296 
102*1963.836296 102*1960.256844 
102*1960.256844 102*1956.677391 
102*1956.677391 102*1953.097939 
102*1953.097939 102*1949.518486 
102*1949.518486 102*1945.939034 
102*1945.939034 102*1942.359581 
102*1942.359581 102*1938.780128 
102*1938.780128 102*1935.200676 
102*1935.200676 102*1931.621223 
102*1931.621223 102*1928.041771 
102*1928.041771 102*1924.462318 
102*1924.462318 102*1920.882866 
102*1920.882866 102*1917.303413 
102*2099.855492 102*2096.276039 
102*2096.276039 102*2092.696587 
102*2092.696587 102*2089.117134 
102*2089.117134 102*2085.537682 
102*2085.537682 102*2081.958229 
102*2081.958229 102*2078.378777 
102*2078.378777 102*2074.799324 
102*2074.799324 102*2071.219872 
102*2071.219872 102*2067.640419 
102*2067.640419 102*2064.060966 
102*2064.060966 102*2060.481514 
102*2060.481514 102*2056.902061 
102*2056.902061 102*2053.322609 
102*2053.322609 102*2049.743156 
102*2049.743156 102*2046.163704 
102*2046.163704 102*2042.584251 
102*2042.584251 102*2039.004799 
102*2039.004799 102*2035.425346 
102*2035.425346 102*2031.845894 
102*2031.845894 102*2028.266441 
102*2028.266441 102*2024.686989 
102*2024.686989 102*2021.107536 
102*2021.107536 102*2017.528084 
102*2017.528084 102*2013.948631 
102*2013.948631 102*2010.369179 
102*2010.369179 102*2006.789726 
102*2006.789726 102*2003.210274 
102*2003.210274 102*1999.630821 
102*1999.630821 102*1996.051369 
102*1996.051369 102*1992.471916 
102*1992.471916 102*1988.892464 
102*1988.892464 102*1985.313011 
102*1985.313011 102*1981.733559 
102*1981.733559 102*1978.154106 
102*1978.154106 102*1974.574654 
102*1974.574654 102*1970.995201 
102*1970.995201 102*1967.415749 
102*1967.415749 102*1963.836296 
102*1963.836296 102*1960.256844 
102*1960.256844 102*1956.677391 
102*1956.677391 102*1953.097939 
102*1953.097939 102*1949.518486 
102*1949.518486 102*1945.939034 
102*1945.939034 102*1942.359581 
102*1942.359581 102*1938.780128 
102*1938.780128 102*1935.200676 
102*1935.200676 102*1931.621223 
102*1931.621223 102*1928.041771 
102*1928.041771 102*1924.462318 
102*1924.462318 102*1920.882866 
102*1920.882866 102*1917.303413 
102*2102.355492 102*2098.776039 
102*2098.776039 102*2095.196587 
102*2095.196587 102*2091.617134 
102*2091.617134 102*2088.037682 
102*2088.037682 102*2084.458229 
102*2084.458229 102*2080.878777 
102*2080.878777 102*2077.299324 
102*2077.299324 102*2073.719872 
102*2073.719872 102*2070.140419 
102*2070.140419 102*2066.560966 
102*2066.560966 102*2062.981514 
102*2062.981514 102*2059.402061 
102*2059.402061 102*2055.822609 
102*2055.822609 102*2052.243156 
102*2052.243156 102*2048.663704 
102*2048.663704 102*2045.084251 
102*2045.084251 102*2041.504799 
102*2041.504799 102*2037.925346 
102*2037.925346 102*2034.345894 
102*2034.345894 102*2030.766441 
102*2030.766441 102*2027.186989 
102*2027.186989 102*2023.607536 
102*2023.607536 102*2020.028084 
102*2020.028084 102*2016.448631 
102*2016.448631 102*2012.869179 
102*2012.869179 102*2009.289726 
102*2009.289726 102*2005.710274 
102*2005.710274 102*2002.130821 
102*2002.130821 102*1998.551369 
102*1998.551369 102*1994.971916 
102*1994.971916 102*1991.392464 
102*1991.392464 102*1987.813011 
102*1987.813011 102*1984.233559 
102*1984.233559 102*1980.654106 
102*1980.654106 102*1977.074654 
102*1977.074654 102*1973.495201 
102*1973.495201 102*1969.915749 
102*1969.915749 102*1966.336296 
102*1966.336296 102*1962.756844 
102*1962.756844 102*1959.177391 
102*1959.177391 102*1955.597939 
102*1955.597939 102*1952.018486 
102*1952.018486 102*1948.439034 
102*1948.439034 102*1944.859581 
102*1944.859581 102*1941.280128 
102*1941.280128 102*1937.700676 
102*1937.700676 102*1934.121223 
102*1934.121223 102*1930.541771 
102*1930.541771 102*1926.962318 
102*1926.962318 102*1923.382866 
102*1923.382866 102*1919.803413 
102*2102.355492 102*2098.776039 
102*2098.776039 102*2095.196587 
102*2095.196587 102*2091.617134 
102*2091.617134 102*2088.037682 
102*2088.037682 102*2084.458229 
102*2084.458229 102*2080.878777 
102*2080.878777 102*2077.299324 
102*2077.299324 102*2073.719872 
102*2073.719872 102*2070.140419 
102*2070.140419 102*2066.560966 
102*2066.560966 102*2062.981514 
102*2062.981514 102*2059.402061 
102*2059.402061 102*2055.822609 
102*2055.822609 102*2052.243156 
102*2052.243156 102*2048.663704 
102*2048.663704 102*2045.084251 
102*2045.084251 102*2041.504799 
102*2041.504799 102*2037.925346 
102*2037.925346 102*2034.345894 
102*2034.345894 102*2030.766441 
102*2030.766441 102*2027.186989 
102*2027.186989 102*2023.607536 
102*2023.607536 102*2020.028084 
102*2020.028084 102*2016.448631 
102*2016.448631 102*2012.869179 
102*2012.869179 102*2009.289726 
102*2009.289726 102*2005.710274 
102*2005.710274 102*2002.130821 
102*2002.130821 102*1998.551369 
102*1998.551369 102*1994.971916 
102*1994.971916 102*1991.392464 
102*1991.392464 102*1987.813011 
102*1987.813011 102*1984.233559 
102*1984.233559 102*1980.654106 
102*1980.654106 102*1977.074654 
102*1977.074654 102*1973.495201 
102*1973.495201 102*1969.915749 
102*1969.915749 102*1966.336296 
102*1966.336296 102*1962.756844 
102*1962.756844 102*1959.177391 
102*1959.177391 102*1955.597939 
102*1955.597939 102*1952.018486 
102*1952.018486 102*1948.439034 
102*1948.439034 102*1944.859581 
102*1944.859581 102*1941.280128 
102*1941.280128 102*1937.700676 
102*1937.700676 102*1934.121223 
102*1934.121223 102*1930.541771 
102*1930.541771 102*1926.962318 
102*1926.962318 102*1923.382866 
102*1923.382866 102*1919.803413 
102*2104.855492 102*2101.276039 
102*2101.276039 102*2097.696587 
102*2097.696587 102*2094.117134 
102*2094.117134 102*2090.537682 
102*2090.537682 102*2086.958229 
102*2086.958229 102*2083.378777 
102*2083.378777 102*2079.799324 
102*2079.799324 102*2076.219872 
102*2076.219872 102*2072.640419 
102*2072.640419 102*2069.060966 
102*2069.060966 102*2065.481514 
102*2065.481514 102*2061.902061 
102*2061.902061 102*2058.322609 
102*2058.322609 102*2054.743156 
102*2054.743156 102*2051.163704 
102*2051.163704 102*2047.584251 
102*2047.584251 102*2044.004799 
102*2044.004799 102*2040.425346 
102*2040.425346 102*2036.845894 
102*2036.845894 102*2033.266441 
102*2033.266441 102*2029.686989 
102*2029.686989 102*2026.107536 
102*2026.107536 102*2022.528084 
102*2022.528084 102*2018.948631 
102*2018.948631 102*2015.369179 
102*2015.369179 102*2011.789726 
102*2011.789726 102*2008.210274 
102*2008.210274 102*2004.630821 
102*2004.630821 102*2001.051369 
102*2001.051369 102*1997.471916 
102*1997.471916 102*1993.892464 
102*1993.892464 102*1990.313011 
102*1990.313011 102*1986.733559 
102*1986.733559 102*1983.154106 
102*1983.154106 102*1979.574654 
102*1979.574654 102*1975.995201 
102*1975.995201 102*1972.415749 
102*1972.415749 102*1968.836296 
102*1968.836296 102*1965.256844 
102*1965.256844 102*1961.677391 
102*1961.677391 102*1958.097939 
102*1958.097939 102*1954.518486 
102*1954.518486 102*1950.939034 
102*1950.939034 102*1947.359581 
102*1947.359581 102*1943.780128 
102*1943.780128 102*1940.200676 
102*1940.200676 102*1936.621223 
102*1936.621223 102*1933.041771 
102*1933.041771 102*1929.462318 
102*1929.462318 102*1925.882866 
102*1925.882866 102*1922.303413 
102*2104.855492 102*2101.276039 
102*2101.276039 102*2097.696587 
102*2097.696587 102*2094.117134 
102*2094.117134 102*2090.537682 
102*2090.537682 102*2086.958229 
102*2086.958229 102*2083.378777 
102*2083.378777 102*2079.799324 
102*2079.799324 102*2076.219872 
102*2076.219872 102*2072.640419 
102*2072.640419 102*2069.060966 
102*2069.060966 102*2065.481514 
102*2065.481514 102*2061.902061 
102*2061.902061 102*2058.322609 
102*2058.322609 102*2054.743156 
102*2054.743156 102*2051.163704 
102*2051.163704 102*2047.584251 
102*2047.584251 102*2044.004799 
102*2044.004799 102*2040.425346 
102*2040.425346 102*2036.845894 
102*2036.845894 102*2033.266441 
102*2033.266441 102*2029.686989 
102*2029.686989 102*2026.107536 
102*2026.107536 102*2022.528084 
102*2022.528084 102*2018.948631 
102*2018.948631 102*2015.369179 
102*2015.369179 102*2011.789726 
102*2011.789726 102*2008.210274 
102*2008.210274 102*2004.630821 
102*2004.630821 102*2001.051369 
102*2001.051369 102*1997.471916 
102*1997.471916 102*1993.892464 
102*1993.892464 102*1990.313011 
102*1990.313011 102*1986.733559 
102*1986.733559 102*1983.154106 
102*1983.154106 102*1979.574654 
102*1979.574654 102*1975.995201 
102*1975.995201 102*1972.415749 
102*1972.415749 102*1968.836296 
102*1968.836296 102*1965.256844 
102*1965.256844 102*1961.677391 
102*1961.677391 102*1958.097939 
102*1958.097939 102*1954.518486 
102*1954.518486 102*1950.939034 
102*1950.939034 102*1947.359581 
102*1947.359581 102*1943.780128 
102*1943.780128 102*1940.200676 
102*1940.200676 102*1936.621223 
102*1936.621223 102*1933.041771 
102*1933.041771 102*1929.462318 
102*1929.462318 102*1925.882866 
102*1925.882866 102*1922.303413 
102*2107.355492 102*2103.776039 
102*2103.776039 102*2100.196587 
102*2100.196587 102*2096.617134 
102*2096.617134 102*2093.037682 
102*2093.037682 102*2089.458229 
102*2089.458229 102*2085.878777 
102*2085.878777 102*2082.299324 
102*2082.299324 102*2078.719872 
102*2078.719872 102*2075.140419 
102*2075.140419 102*2071.560966 
102*2071.560966 102*2067.981514 
102*2067.981514 102*2064.402061 
102*2064.402061 102*2060.822609 
102*2060.822609 102*2057.243156 
102*2057.243156 102*2053.663704 
102*2053.663704 102*2050.084251 
102*2050.084251 102*2046.504799 
102*2046.504799 102*2042.925346 
102*2042.925346 102*2039.345894 
102*2039.345894 102*2035.766441 
102*2035.766441 102*2032.186989 
102*2032.186989 102*2028.607536 
102*2028.607536 102*2025.028084 
102*2025.028084 102*2021.448631 
102*2021.448631 102*2017.869179 
102*2017.869179 102*2014.289726 
102*2014.289726 102*2010.710274 
102*2010.710274 102*2007.130821 
102*2007.130821 102*2003.551369 
102*2003.551369 102*1999.971916 
102*1999.971916 102*1996.392464 
102*1996.392464 102*1992.813011 
102*1992.813011 102*1989.233559 
102*1989.233559 102*1985.654106 
102*1985.654106 102*1982.074654 
102*1982.074654 102*1978.495201 
102*1978.495201 102*1974.915749 
102*1974.915749 102*1971.336296 
102*1971.336296 102*1967.756844 
102*1967.756844 102*1964.177391 
102*1964.177391 102*1960.597939 
102*1960.597939 102*1957.018486 
102*1957.018486 102*1953.439034 
102*1953.439034 102*1949.859581 
102*1949.859581 102*1946.280128 
102*1946.280128 102*1942.700676 
102*1942.700676 102*1939.121223 
102*1939.121223 102*1935.541771 
102*1935.541771 102*1931.962318 
102*1931.962318 102*1928.382866 
102*1928.382866 102*1924.803413 
102*2107.355492 102*2103.776039 
102*2103.776039 102*2100.196587 
102*2100.196587 102*2096.617134 
102*2096.617134 102*2093.037682 
102*2093.037682 102*2089.458229 
102*2089.458229 102*2085.878777 
102*2085.878777 102*2082.299324 
102*2082.299324 102*2078.719872 
102*2078.719872 102*2075.140419 
102*2075.140419 102*2071.560966 
102*2071.560966 102*2067.981514 
102*2067.981514 102*2064.402061 
102*2064.402061 102*2060.822609 
102*2060.822609 102*2057.243156 
102*2057.243156 102*2053.663704 
102*2053.663704 102*2050.084251 
102*2050.084251 102*2046.504799 
102*2046.504799 102*2042.925346 
102*2042.925346 102*2039.345894 
102*2039.345894 102*2035.766441 
102*2035.766441 102*2032.186989 
102*2032.186989 102*2028.607536 
102*2028.607536 102*2025.028084 
102*2025.028084 102*2021.448631 
102*2021.448631 102*2017.869179 
102*2017.869179 102*2014.289726 
102*2014.289726 102*2010.710274 
102*2010.710274 102*2007.130821 
102*2007.130821 102*2003.551369 
102*2003.551369 102*1999.971916 
102*1999.971916 102*1996.392464 
102*1996.392464 102*1992.813011 
102*1992.813011 102*1989.233559 
102*1989.233559 102*1985.654106 
102*1985.654106 102*1982.074654 
102*1982.074654 102*1978.495201 
102*1978.495201 102*1974.915749 
102*1974.915749 102*1971.336296 
102*1971.336296 102*1967.756844 
102*1967.756844 102*1964.177391 
102*1964.177391 102*1960.597939 
102*1960.597939 102*1957.018486 
102*1957.018486 102*1953.439034 
102*1953.439034 102*1949.859581 
102*1949.859581 102*1946.280128 
102*1946.280128 102*1942.700676 
102*1942.700676 102*1939.121223 
102*1939.121223 102*1935.541771 
102*1935.541771 102*1931.962318 
102*1931.962318 102*1928.382866 
102*1928.382866 102*1924.803413 
102*2109.855492 102*2106.276039 
102*2106.276039 102*2102.696587 
102*2102.696587 102*2099.117134 
102*2099.117134 102*2095.537682 
102*2095.537682 102*2091.958229 
102*2091.958229 102*2088.378777 
102*2088.378777 102*2084.799324 
102*2084.799324 102*2081.219872 
102*2081.219872 102*2077.640419 
102*2077.640419 102*2074.060966 
102*2074.060966 102*2070.481514 
102*2070.481514 102*2066.902061 
102*2066.902061 102*2063.322609 
102*2063.322609 102*2059.743156 
102*2059.743156 102*2056.163704 
102*2056.163704 102*2052.584251 
102*2052.584251 102*2049.004799 
102*2049.004799 102*2045.425346 
102*2045.425346 102*2041.845894 
102*2041.845894 102*2038.266441 
102*2038.266441 102*2034.686989 
102*2034.686989 102*2031.107536 
102*2031.107536 102*2027.528084 
102*2027.528084 102*2023.948631 
102*2023.948631 102*2020.369179 
102*2020.369179 102*2016.789726 
102*2016.789726 102*2013.210274 
102*2013.210274 102*2009.630821 
102*2009.630821 102*2006.051369 
102*2006.051369 102*2002.471916 
102*2002.471916 102*1998.892464 
102*1998.892464 102*1995.313011 
102*1995.313011 102*1991.733559 
102*1991.733559 102*1988.154106 
102*1988.154106 102*1984.574654 
102*1984.574654 102*1980.995201 
102*1980.995201 102*1977.415749 
102*1977.415749 102*1973.836296 
102*1973.836296 102*1970.256844 
102*1970.256844 102*1966.677391 
102*1966.677391 102*1963.097939 
102*1963.097939 102*1959.518486 
102*1959.518486 102*1955.939034 
102*1955.939034 102*1952.359581 
102*1952.359581 102*1948.780128 
102*1948.780128 102*1945.200676 
102*1945.200676 102*1941.621223 
102*1941.621223 102*1938.041771 
102*1938.041771 102*1934.462318 
102*1934.462318 102*1930.882866 
102*1930.882866 102*1927.303413 
102*2109.855492 102*2106.276039 
102*2106.276039 102*2102.696587 
102*2102.696587 102*2099.117134 
102*2099.117134 102*2095.537682 
102*2095.537682 102*2091.958229 
102*2091.958229 102*2088.378777 
102*2088.378777 102*2084.799324 
102*2084.799324 102*2081.219872 
102*2081.219872 102*2077.640419 
102*2077.640419 102*2074.060966 
102*2074.060966 102*2070.481514 
102*2070.481514 102*2066.902061 
102*2066.902061 102*2063.322609 
102*2063.322609 102*2059.743156 
102*2059.743156 102*2056.163704 
102*2056.163704 102*2052.584251 
102*2052.584251 102*2049.004799 
102*2049.004799 102*2045.425346 
102*2045.425346 102*2041.845894 
102*2041.845894 102*2038.266441 
102*2038.266441 102*2034.686989 
102*2034.686989 102*2031.107536 
102*2031.107536 102*2027.528084 
102*2027.528084 102*2023.948631 
102*2023.948631 102*2020.369179 
102*2020.369179 102*2016.789726 
102*2016.789726 102*2013.210274 
102*2013.210274 102*2009.630821 
102*2009.630821 102*2006.051369 
102*2006.051369 102*2002.471916 
102*2002.471916 102*1998.892464 
102*1998.892464 102*1995.313011 
102*1995.313011 102*1991.733559 
102*1991.733559 102*1988.154106 
102*1988.154106 102*1984.574654 
102*1984.574654 102*1980.995201 
102*1980.995201 102*1977.415749 
102*1977.415749 102*1973.836296 
102*1973.836296 102*1970.256844 
102*1970.256844 102*1966.677391 
102*1966.677391 102*1963.097939 
102*1963.097939 102*1959.518486 
102*1959.518486 102*1955.939034 
102*1955.939034 102*1952.359581 
102*1952.359581 102*1948.780128 
102*1948.780128 102*1945.200676 
102*1945.200676 102*1941.621223 
102*1941.621223 102*1938.041771 
102*1938.041771 102*1934.462318 
102*1934.462318 102*1930.882866 
102*1930.882866 102*1927.303413 
102*2112.355492 102*2108.776039 
102*2108.776039 102*2105.196587 
102*2105.196587 102*2101.617134 
102*2101.617134 102*2098.037682 
102*2098.037682 102*2094.458229 
102*2094.458229 102*2090.878777 
102*2090.878777 102*2087.299324 
102*2087.299324 102*2083.719872 
102*2083.719872 102*2080.140419 
102*2080.140419 102*2076.560966 
102*2076.560966 102*2072.981514 
102*2072.981514 102*2069.402061 
102*2069.402061 102*2065.822609 
102*2065.822609 102*2062.243156 
102*2062.243156 102*2058.663704 
102*2058.663704 102*2055.084251 
102*2055.084251 102*2051.504799 
102*2051.504799 102*2047.925346 
102*2047.925346 102*2044.345894 
102*2044.345894 102*2040.766441 
102*2040.766441 102*2037.186989 
102*2037.186989 102*2033.607536 
102*2033.607536 102*2030.028084 
102*2030.028084 102*2026.448631 
102*2026.448631 102*2022.869179 
102*2022.869179 102*2019.289726 
102*2019.289726 102*2015.710274 
102*2015.710274 102*2012.130821 
102*2012.130821 102*2008.551369 
102*2008.551369 102*2004.971916 
102*2004.971916 102*2001.392464 
102*2001.392464 102*1997.813011 
102*1997.813011 102*1994.233559 
102*1994.233559 102*1990.654106 
102*1990.654106 102*1987.074654 
102*1987.074654 102*1983.495201 
102*1983.495201 102*1979.915749 
102*1979.915749 102*1976.336296 
102*1976.336296 102*1972.756844 
102*1972.756844 102*1969.177391 
102*1969.177391 102*1965.597939 
102*1965.597939 102*1962.018486 
102*1962.018486 102*1958.439034 
102*1958.439034 102*1954.859581 
102*1954.859581 102*1951.280128 
102*1951.280128 102*1947.700676 
102*1947.700676 102*1944.121223 
102*1944.121223 102*1940.541771 
102*1940.541771 102*1936.962318 
102*1936.962318 102*1933.382866 
102*1933.382866 102*1929.803413 
102*2112.355492 102*2108.776039 
102*2108.776039 102*2105.196587 
102*2105.196587 102*2101.617134 
102*2101.617134 102*2098.037682 
102*2098.037682 102*2094.458229 
102*2094.458229 102*2090.878777 
102*2090.878777 102*2087.299324 
102*2087.299324 102*2083.719872 
102*2083.719872 102*2080.140419 
102*2080.140419 102*2076.560966 
102*2076.560966 102*2072.981514 
102*2072.981514 102*2069.402061 
102*2069.402061 102*2065.822609 
102*2065.822609 102*2062.243156 
102*2062.243156 102*2058.663704 
102*2058.663704 102*2055.084251 
102*2055.084251 102*2051.504799 
102*2051.504799 102*2047.925346 
102*2047.925346 102*2044.345894 
102*2044.345894 102*2040.766441 
102*2040.766441 102*2037.186989 
102*2037.186989 102*2033.607536 
102*2033.607536 102*2030.028084 
102*2030.028084 102*2026.448631 
102*2026.448631 102*2022.869179 
102*2022.869179 102*2019.289726 
102*2019.289726 102*2015.710274 
102*2015.710274 102*2012.130821 
102*2012.130821 102*2008.551369 
102*2008.551369 102*2004.971916 
102*2004.971916 102*2001.392464 
102*2001.392464 102*1997.813011 
102*1997.813011 102*1994.233559 
102*1994.233559 102*1990.654106 
102*1990.654106 102*1987.074654 
102*1987.074654 102*1983.495201 
102*1983.495201 102*1979.915749 
102*1979.915749 102*1976.336296 
102*1976.336296 102*1972.756844 
102*1972.756844 102*1969.177391 
102*1969.177391 102*1965.597939 
102*1965.597939 102*1962.018486 
102*1962.018486 102*1958.439034 
102*1958.439034 102*1954.859581 
102*1954.859581 102*1951.280128 
102*1951.280128 102*1947.700676 
102*1947.700676 102*1944.121223 
102*1944.121223 102*1940.541771 
102*1940.541771 102*1936.962318 
102*1936.962318 102*1933.382866 
102*1933.382866 102*1929.803413 
102*2114.855492 102*2111.276039 
102*2111.276039 102*2107.696587 
102*2107.696587 102*2104.117134 
102*2104.117134 102*2100.537682 
102*2100.537682 102*2096.958229 
102*2096.958229 102*2093.378777 
102*2093.378777 102*2089.799324 
102*2089.799324 102*2086.219872 
102*2086.219872 102*2082.640419 
102*2082.640419 102*2079.060966 
102*2079.060966 102*2075.481514 
102*2075.481514 102*2071.902061 
102*2071.902061 102*2068.322609 
102*2068.322609 102*2064.743156 
102*2064.743156 102*2061.163704 
102*2061.163704 102*2057.584251 
102*2057.584251 102*2054.004799 
102*2054.004799 102*2050.425346 
102*2050.425346 102*2046.845894 
102*2046.845894 102*2043.266441 
102*2043.266441 102*2039.686989 
102*2039.686989 102*2036.107536 
102*2036.107536 102*2032.528084 
102*2032.528084 102*2028.948631 
102*2028.948631 102*2025.369179 
102*2025.369179 102*2021.789726 
102*2021.789726 102*2018.210274 
102*2018.210274 102*2014.630821 
102*2014.630821 102*2011.051369 
102*2011.051369 102*2007.471916 
102*2007.471916 102*2003.892464 
102*2003.892464 102*2000.313011 
102*2000.313011 102*1996.733559 
102*1996.733559 102*1993.154106 
102*1993.154106 102*1989.574654 
102*1989.574654 102*1985.995201 
102*1985.995201 102*1982.415749 
102*1982.415749 102*1978.836296 
102*1978.836296 102*1975.256844 
102*1975.256844 102*1971.677391 
102*1971.677391 102*1968.097939 
102*1968.097939 102*1964.518486 
102*1964.518486 102*1960.939034 
102*1960.939034 102*1957.359581 
102*1957.359581 102*1953.780128 
102*1953.780128 102*1950.200676 
102*1950.200676 102*1946.621223 
102*1946.621223 102*1943.041771 
102*1943.041771 102*1939.462318 
102*1939.462318 102*1935.882866 
102*1935.882866 102*1932.303413 
102*2114.855492 102*2111.276039 
102*2111.276039 102*2107.696587 
102*2107.696587 102*2104.117134 
102*2104.117134 102*2100.537682 
102*2100.537682 102*2096.958229 
102*2096.958229 102*2093.378777 
102*2093.378777 102*2089.799324 
102*2089.799324 102*2086.219872 
102*2086.219872 102*2082.640419 
102*2082.640419 102*2079.060966 
102*2079.060966 102*2075.481514 
102*2075.481514 102*2071.902061 
102*2071.902061 102*2068.322609 
102*2068.322609 102*2064.743156 
102*2064.743156 102*2061.163704 
102*2061.163704 102*2057.584251 
102*2057.584251 102*2054.004799 
102*2054.004799 102*2050.425346 
102*2050.425346 102*2046.845894 
102*2046.845894 102*2043.266441 
102*2043.266441 102*2039.686989 
102*2039.686989 102*2036.107536 
102*2036.107536 102*2032.528084 
102*2032.528084 102*2028.948631 
102*2028.948631 102*2025.369179 
102*2025.369179 102*2021.789726 
102*2021.789726 102*2018.210274 
102*2018.210274 102*2014.630821 
102*2014.630821 102*2011.051369 
102*2011.051369 102*2007.471916 
102*2007.471916 102*2003.892464 
102*2003.892464 102*2000.313011 
102*2000.313011 102*1996.733559 
102*1996.733559 102*1993.154106 
102*1993.154106 102*1989.574654 
102*1989.574654 102*1985.995201 
102*1985.995201 102*1982.415749 
102*1982.415749 102*1978.836296 
102*1978.836296 102*1975.256844 
102*1975.256844 102*1971.677391 
102*1971.677391 102*1968.097939 
102*1968.097939 102*1964.518486 
102*1964.518486 102*1960.939034 
102*1960.939034 102*1957.359581 
102*1957.359581 102*1953.780128 
102*1953.780128 102*1950.200676 
102*1950.200676 102*1946.621223 
102*1946.621223 102*1943.041771 
102*1943.041771 102*1939.462318 
102*1939.462318 102*1935.882866 
102*1935.882866 102*1932.303413 
102*2117.355492 102*2113.776039 
102*2113.776039 102*2110.196587 
102*2110.196587 102*2106.617134 
102*2106.617134 102*2103.037682 
102*2103.037682 102*2099.458229 
102*2099.458229 102*2095.878777 
102*2095.878777 102*2092.299324 
102*2092.299324 102*2088.719872 
102*2088.719872 102*2085.140419 
102*2085.140419 102*2081.560966 
102*2081.560966 102*2077.981514 
102*2077.981514 102*2074.402061 
102*2074.402061 102*2070.822609 
102*2070.822609 102*2067.243156 
102*2067.243156 102*2063.663704 
102*2063.663704 102*2060.084251 
102*2060.084251 102*2056.504799 
102*2056.504799 102*2052.925346 
102*2052.925346 102*2049.345894 
102*2049.345894 102*2045.766441 
102*2045.766441 102*2042.186989 
102*2042.186989 102*2038.607536 
102*2038.607536 102*2035.028084 
102*2035.028084 102*2031.448631 
102*2031.448631 102*2027.869179 
102*2027.869179 102*2024.289726 
102*2024.289726 102*2020.710274 
102*2020.710274 102*2017.130821 
102*2017.130821 102*2013.551369 
102*2013.551369 102*2009.971916 
102*2009.971916 102*2006.392464 
102*2006.392464 102*2002.813011 
102*2002.813011 102*1999.233559 
102*1999.233559 102*1995.654106 
102*1995.654106 102*1992.074654 
102*1992.074654 102*1988.495201 
102*1988.495201 102*1984.915749 
102*1984.915749 102*1981.336296 
102*1981.336296 102*1977.756844 
102*1977.756844 102*1974.177391 
102*1974.177391 102*1970.597939 