ZCORN
102*2098.560518 102*2094.841253 
102*2094.841253 102*2091.121988 
102*2091.121988 102*2087.402723 
102*2087.402723 102*2083.683459 
102*2083.683459 102*2079.964194 
102*2079.964194 102*2076.244929 
102*2076.244929 102*2072.525664 
102*2072.525664 102*2068.806399 
102*2068.806399 102*2065.087135 
102*2065.087135 102*2061.367870 
102*2061.367870 102*2057.648605 
102*2057.648605 102*2053.929340 
102*2053.929340 102*2050.210075 
102*2050.210075 102*2046.490810 
102*2046.490810 102*2042.771546 
102*2042.771546 102*2039.052281 
102*2039.052281 102*2035.333016 
102*2035.333016 102*2031.613751 
102*2031.613751 102*2027.894486 
102*2027.894486 102*2024.175221 
102*2024.175221 102*2020.455957 
102*2020.455957 102*2016.736692 
102*2016.736692 102*2013.017427 
102*2013.017427 102*2009.298162 
102*2009.298162 102*2005.578897 
102*2005.578897 102*2001.859632 
102*2001.859632 102*1998.140368 
102*1998.140368 102*1994.421103 
102*1994.421103 102*1990.701838 
102*1990.701838 102*1986.982573 
102*1986.982573 102*1983.263308 
102*1983.263308 102*1979.544043 
102*1979.544043 102*1975.824779 
102*1975.824779 102*1972.105514 
102*1972.105514 102*1968.386249 
102*1968.386249 102*1964.666984 
102*1964.666984 102*1960.947719 
102*1960.947719 102*1957.228454 
102*1957.228454 102*1953.509190 
102*1953.509190 102*1949.789925 
102*1949.789925 102*1946.070660 
102*1946.070660 102*1942.351395 
102*1942.351395 102*1938.632130 
102*1938.632130 102*1934.912865 
102*1934.912865 102*1931.193601 
102*1931.193601 102*1927.474336 
102*1927.474336 102*1923.755071 
102*1923.755071 102*1920.035806 
102*1920.035806 102*1916.316541 
102*1916.316541 102*1912.597277 
102*1912.597277 102*1908.878012 
102*2101.060518 102*2097.341253 
102*2097.341253 102*2093.621988 
102*2093.621988 102*2089.902723 
102*2089.902723 102*2086.183459 
102*2086.183459 102*2082.464194 
102*2082.464194 102*2078.744929 
102*2078.744929 102*2075.025664 
102*2075.025664 102*2071.306399 
102*2071.306399 102*2067.587135 
102*2067.587135 102*2063.867870 
102*2063.867870 102*2060.148605 
102*2060.148605 102*2056.429340 
102*2056.429340 102*2052.710075 
102*2052.710075 102*2048.990810 
102*2048.990810 102*2045.271546 
102*2045.271546 102*2041.552281 
102*2041.552281 102*2037.833016 
102*2037.833016 102*2034.113751 
102*2034.113751 102*2030.394486 
102*2030.394486 102*2026.675221 
102*2026.675221 102*2022.955957 
102*2022.955957 102*2019.236692 
102*2019.236692 102*2015.517427 
102*2015.517427 102*2011.798162 
102*2011.798162 102*2008.078897 
102*2008.078897 102*2004.359632 
102*2004.359632 102*2000.640368 
102*2000.640368 102*1996.921103 
102*1996.921103 102*1993.201838 
102*1993.201838 102*1989.482573 
102*1989.482573 102*1985.763308 
102*1985.763308 102*1982.044043 
102*1982.044043 102*1978.324779 
102*1978.324779 102*1974.605514 
102*1974.605514 102*1970.886249 
102*1970.886249 102*1967.166984 
102*1967.166984 102*1963.447719 
102*1963.447719 102*1959.728454 
102*1959.728454 102*1956.009190 
102*1956.009190 102*1952.289925 
102*1952.289925 102*1948.570660 
102*1948.570660 102*1944.851395 
102*1944.851395 102*1941.132130 
102*1941.132130 102*1937.412865 
102*1937.412865 102*1933.693601 
102*1933.693601 102*1929.974336 
102*1929.974336 102*1926.255071 
102*1926.255071 102*1922.535806 
102*1922.535806 102*1918.816541 
102*1918.816541 102*1915.097277 
102*1915.097277 102*1911.378012 
102*2101.060518 102*2097.341253 
102*2097.341253 102*2093.621988 
102*2093.621988 102*2089.902723 
102*2089.902723 102*2086.183459 
102*2086.183459 102*2082.464194 
102*2082.464194 102*2078.744929 
102*2078.744929 102*2075.025664 
102*2075.025664 102*2071.306399 
102*2071.306399 102*2067.587135 
102*2067.587135 102*2063.867870 
102*2063.867870 102*2060.148605 
102*2060.148605 102*2056.429340 
102*2056.429340 102*2052.710075 
102*2052.710075 102*2048.990810 
102*2048.990810 102*2045.271546 
102*2045.271546 102*2041.552281 
102*2041.552281 102*2037.833016 
102*2037.833016 102*2034.113751 
102*2034.113751 102*2030.394486 
102*2030.394486 102*2026.675221 
102*2026.675221 102*2022.955957 
102*2022.955957 102*2019.236692 
102*2019.236692 102*2015.517427 
102*2015.517427 102*2011.798162 
102*2011.798162 102*2008.078897 
102*2008.078897 102*2004.359632 
102*2004.359632 102*2000.640368 
102*2000.640368 102*1996.921103 
102*1996.921103 102*1993.201838 
102*1993.201838 102*1989.482573 
102*1989.482573 102*1985.763308 
102*1985.763308 102*1982.044043 
102*1982.044043 102*1978.324779 
102*1978.324779 102*1974.605514 
102*1974.605514 102*1970.886249 
102*1970.886249 102*1967.166984 
102*1967.166984 102*1963.447719 
102*1963.447719 102*1959.728454 
102*1959.728454 102*1956.009190 
102*1956.009190 102*1952.289925 
102*1952.289925 102*1948.570660 
102*1948.570660 102*1944.851395 
102*1944.851395 102*1941.132130 
102*1941.132130 102*1937.412865 
102*1937.412865 102*1933.693601 
102*1933.693601 102*1929.974336 
102*1929.974336 102*1926.255071 
102*1926.255071 102*1922.535806 
102*1922.535806 102*1918.816541 
102*1918.816541 102*1915.097277 
102*1915.097277 102*1911.378012 
102*2103.560518 102*2099.841253 
102*2099.841253 102*2096.121988 
102*2096.121988 102*2092.402723 
102*2092.402723 102*2088.683459 
102*2088.683459 102*2084.964194 
102*2084.964194 102*2081.244929 
102*2081.244929 102*2077.525664 
102*2077.525664 102*2073.806399 
102*2073.806399 102*2070.087135 
102*2070.087135 102*2066.367870 
102*2066.367870 102*2062.648605 
102*2062.648605 102*2058.929340 
102*2058.929340 102*2055.210075 
102*2055.210075 102*2051.490810 
102*2051.490810 102*2047.771546 
102*2047.771546 102*2044.052281 
102*2044.052281 102*2040.333016 
102*2040.333016 102*2036.613751 
102*2036.613751 102*2032.894486 
102*2032.894486 102*2029.175221 
102*2029.175221 102*2025.455957 
102*2025.455957 102*2021.736692 
102*2021.736692 102*2018.017427 
102*2018.017427 102*2014.298162 
102*2014.298162 102*2010.578897 
102*2010.578897 102*2006.859632 
102*2006.859632 102*2003.140368 
102*2003.140368 102*1999.421103 
102*1999.421103 102*1995.701838 
102*1995.701838 102*1991.982573 
102*1991.982573 102*1988.263308 
102*1988.263308 102*1984.544043 
102*1984.544043 102*1980.824779 
102*1980.824779 102*1977.105514 
102*1977.105514 102*1973.386249 
102*1973.386249 102*1969.666984 
102*1969.666984 102*1965.947719 
102*1965.947719 102*1962.228454 
102*1962.228454 102*1958.509190 
102*1958.509190 102*1954.789925 
102*1954.789925 102*1951.070660 
102*1951.070660 102*1947.351395 
102*1947.351395 102*1943.632130 
102*1943.632130 102*1939.912865 
102*1939.912865 102*1936.193601 
102*1936.193601 102*1932.474336 
102*1932.474336 102*1928.755071 
102*1928.755071 102*1925.035806 
102*1925.035806 102*1921.316541 
102*1921.316541 102*1917.597277 
102*1917.597277 102*1913.878012 
102*2103.560518 102*2099.841253 
102*2099.841253 102*2096.121988 
102*2096.121988 102*2092.402723 
102*2092.402723 102*2088.683459 
102*2088.683459 102*2084.964194 
102*2084.964194 102*2081.244929 
102*2081.244929 102*2077.525664 
102*2077.525664 102*2073.806399 
102*2073.806399 102*2070.087135 
102*2070.087135 102*2066.367870 
102*2066.367870 102*2062.648605 
102*2062.648605 102*2058.929340 
102*2058.929340 102*2055.210075 
102*2055.210075 102*2051.490810 
102*2051.490810 102*2047.771546 
102*2047.771546 102*2044.052281 
102*2044.052281 102*2040.333016 
102*2040.333016 102*2036.613751 
102*2036.613751 102*2032.894486 
102*2032.894486 102*2029.175221 
102*2029.175221 102*2025.455957 
102*2025.455957 102*2021.736692 
102*2021.736692 102*2018.017427 
102*2018.017427 102*2014.298162 
102*2014.298162 102*2010.578897 
102*2010.578897 102*2006.859632 
102*2006.859632 102*2003.140368 
102*2003.140368 102*1999.421103 
102*1999.421103 102*1995.701838 
102*1995.701838 102*1991.982573 
102*1991.982573 102*1988.263308 
102*1988.263308 102*1984.544043 
102*1984.544043 102*1980.824779 
102*1980.824779 102*1977.105514 
102*1977.105514 102*1973.386249 
102*1973.386249 102*1969.666984 
102*1969.666984 102*1965.947719 
102*1965.947719 102*1962.228454 
102*1962.228454 102*1958.509190 
102*1958.509190 102*1954.789925 
102*1954.789925 102*1951.070660 
102*1951.070660 102*1947.351395 
102*1947.351395 102*1943.632130 
102*1943.632130 102*1939.912865 
102*1939.912865 102*1936.193601 
102*1936.193601 102*1932.474336 
102*1932.474336 102*1928.755071 
102*1928.755071 102*1925.035806 
102*1925.035806 102*1921.316541 
102*1921.316541 102*1917.597277 
102*1917.597277 102*1913.878012 
102*2106.060518 102*2102.341253 
102*2102.341253 102*2098.621988 
102*2098.621988 102*2094.902723 
102*2094.902723 102*2091.183459 
102*2091.183459 102*2087.464194 
102*2087.464194 102*2083.744929 
102*2083.744929 102*2080.025664 
102*2080.025664 102*2076.306399 
102*2076.306399 102*2072.587135 
102*2072.587135 102*2068.867870 
102*2068.867870 102*2065.148605 
102*2065.148605 102*2061.429340 
102*2061.429340 102*2057.710075 
102*2057.710075 102*2053.990810 
102*2053.990810 102*2050.271546 
102*2050.271546 102*2046.552281 
102*2046.552281 102*2042.833016 
102*2042.833016 102*2039.113751 
102*2039.113751 102*2035.394486 
102*2035.394486 102*2031.675221 
102*2031.675221 102*2027.955957 
102*2027.955957 102*2024.236692 
102*2024.236692 102*2020.517427 
102*2020.517427 102*2016.798162 
102*2016.798162 102*2013.078897 
102*2013.078897 102*2009.359632 
102*2009.359632 102*2005.640368 
102*2005.640368 102*2001.921103 
102*2001.921103 102*1998.201838 
102*1998.201838 102*1994.482573 
102*1994.482573 102*1990.763308 
102*1990.763308 102*1987.044043 
102*1987.044043 102*1983.324779 
102*1983.324779 102*1979.605514 
102*1979.605514 102*1975.886249 
102*1975.886249 102*1972.166984 
102*1972.166984 102*1968.447719 
102*1968.447719 102*1964.728454 
102*1964.728454 102*1961.009190 
102*1961.009190 102*1957.289925 
102*1957.289925 102*1953.570660 
102*1953.570660 102*1949.851395 
102*1949.851395 102*1946.132130 
102*1946.132130 102*1942.412865 
102*1942.412865 102*1938.693601 
102*1938.693601 102*1934.974336 
102*1934.974336 102*1931.255071 
102*1931.255071 102*1927.535806 
102*1927.535806 102*1923.816541 
102*1923.816541 102*1920.097277 
102*1920.097277 102*1916.378012 
102*2106.060518 102*2102.341253 
102*2102.341253 102*2098.621988 
102*2098.621988 102*2094.902723 
102*2094.902723 102*2091.183459 
102*2091.183459 102*2087.464194 
102*2087.464194 102*2083.744929 
102*2083.744929 102*2080.025664 
102*2080.025664 102*2076.306399 
102*2076.306399 102*2072.587135 
102*2072.587135 102*2068.867870 
102*2068.867870 102*2065.148605 
102*2065.148605 102*2061.429340 
102*2061.429340 102*2057.710075 
102*2057.710075 102*2053.990810 
102*2053.990810 102*2050.271546 
102*2050.271546 102*2046.552281 
102*2046.552281 102*2042.833016 
102*2042.833016 102*2039.113751 
102*2039.113751 102*2035.394486 
102*2035.394486 102*2031.675221 
102*2031.675221 102*2027.955957 
102*2027.955957 102*2024.236692 
102*2024.236692 102*2020.517427 
102*2020.517427 102*2016.798162 
102*2016.798162 102*2013.078897 
102*2013.078897 102*2009.359632 
102*2009.359632 102*2005.640368 
102*2005.640368 102*2001.921103 
102*2001.921103 102*1998.201838 
102*1998.201838 102*1994.482573 
102*1994.482573 102*1990.763308 
102*1990.763308 102*1987.044043 
102*1987.044043 102*1983.324779 
102*1983.324779 102*1979.605514 
102*1979.605514 102*1975.886249 
102*1975.886249 102*1972.166984 
102*1972.166984 102*1968.447719 
102*1968.447719 102*1964.728454 
102*1964.728454 102*1961.009190 
102*1961.009190 102*1957.289925 
102*1957.289925 102*1953.570660 
102*1953.570660 102*1949.851395 
102*1949.851395 102*1946.132130 
102*1946.132130 102*1942.412865 
102*1942.412865 102*1938.693601 
102*1938.693601 102*1934.974336 
102*1934.974336 102*1931.255071 
102*1931.255071 102*1927.535806 
102*1927.535806 102*1923.816541 
102*1923.816541 102*1920.097277 
102*1920.097277 102*1916.378012 
102*2108.560518 102*2104.841253 
102*2104.841253 102*2101.121988 
102*2101.121988 102*2097.402723 
102*2097.402723 102*2093.683459 
102*2093.683459 102*2089.964194 
102*2089.964194 102*2086.244929 
102*2086.244929 102*2082.525664 
102*2082.525664 102*2078.806399 
102*2078.806399 102*2075.087135 
102*2075.087135 102*2071.367870 
102*2071.367870 102*2067.648605 
102*2067.648605 102*2063.929340 
102*2063.929340 102*2060.210075 
102*2060.210075 102*2056.490810 
102*2056.490810 102*2052.771546 
102*2052.771546 102*2049.052281 
102*2049.052281 102*2045.333016 
102*2045.333016 102*2041.613751 
102*2041.613751 102*2037.894486 
102*2037.894486 102*2034.175221 
102*2034.175221 102*2030.455957 
102*2030.455957 102*2026.736692 
102*2026.736692 102*2023.017427 
102*2023.017427 102*2019.298162 
102*2019.298162 102*2015.578897 
102*2015.578897 102*2011.859632 
102*2011.859632 102*2008.140368 
102*2008.140368 102*2004.421103 
102*2004.421103 102*2000.701838 
102*2000.701838 102*1996.982573 
102*1996.982573 102*1993.263308 
102*1993.263308 102*1989.544043 
102*1989.544043 102*1985.824779 
102*1985.824779 102*1982.105514 
102*1982.105514 102*1978.386249 
102*1978.386249 102*1974.666984 
102*1974.666984 102*1970.947719 
102*1970.947719 102*1967.228454 
102*1967.228454 102*1963.509190 
102*1963.509190 102*1959.789925 
102*1959.789925 102*1956.070660 
102*1956.070660 102*1952.351395 
102*1952.351395 102*1948.632130 
102*1948.632130 102*1944.912865 
102*1944.912865 102*1941.193601 
102*1941.193601 102*1937.474336 
102*1937.474336 102*1933.755071 
102*1933.755071 102*1930.035806 
102*1930.035806 102*1926.316541 
102*1926.316541 102*1922.597277 
102*1922.597277 102*1918.878012 
102*2108.560518 102*2104.841253 
102*2104.841253 102*2101.121988 
102*2101.121988 102*2097.402723 
102*2097.402723 102*2093.683459 
102*2093.683459 102*2089.964194 
102*2089.964194 102*2086.244929 
102*2086.244929 102*2082.525664 
102*2082.525664 102*2078.806399 
102*2078.806399 102*2075.087135 
102*2075.087135 102*2071.367870 
102*2071.367870 102*2067.648605 
102*2067.648605 102*2063.929340 
102*2063.929340 102*2060.210075 
102*2060.210075 102*2056.490810 
102*2056.490810 102*2052.771546 
102*2052.771546 102*2049.052281 
102*2049.052281 102*2045.333016 
102*2045.333016 102*2041.613751 
102*2041.613751 102*2037.894486 
102*2037.894486 102*2034.175221 
102*2034.175221 102*2030.455957 
102*2030.455957 102*2026.736692 
102*2026.736692 102*2023.017427 
102*2023.017427 102*2019.298162 
102*2019.298162 102*2015.578897 
102*2015.578897 102*2011.859632 
102*2011.859632 102*2008.140368 
102*2008.140368 102*2004.421103 
102*2004.421103 102*2000.701838 
102*2000.701838 102*1996.982573 
102*1996.982573 102*1993.263308 
102*1993.263308 102*1989.544043 
102*1989.544043 102*1985.824779 
102*1985.824779 102*1982.105514 
102*1982.105514 102*1978.386249 
102*1978.386249 102*1974.666984 
102*1974.666984 102*1970.947719 
102*1970.947719 102*1967.228454 
102*1967.228454 102*1963.509190 
102*1963.509190 102*1959.789925 
102*1959.789925 102*1956.070660 
102*1956.070660 102*1952.351395 
102*1952.351395 102*1948.632130 
102*1948.632130 102*1944.912865 
102*1944.912865 102*1941.193601 
102*1941.193601 102*1937.474336 
102*1937.474336 102*1933.755071 
102*1933.755071 102*1930.035806 
102*1930.035806 102*1926.316541 
102*1926.316541 102*1922.597277 
102*1922.597277 102*1918.878012 
102*2111.060518 102*2107.341253 
102*2107.341253 102*2103.621988 
102*2103.621988 102*2099.902723 
102*2099.902723 102*2096.183459 
102*2096.183459 102*2092.464194 
102*2092.464194 102*2088.744929 
102*2088.744929 102*2085.025664 
102*2085.025664 102*2081.306399 
102*2081.306399 102*2077.587135 
102*2077.587135 102*2073.867870 
102*2073.867870 102*2070.148605 
102*2070.148605 102*2066.429340 
102*2066.429340 102*2062.710075 
102*2062.710075 102*2058.990810 
102*2058.990810 102*2055.271546 
102*2055.271546 102*2051.552281 
102*2051.552281 102*2047.833016 
102*2047.833016 102*2044.113751 
102*2044.113751 102*2040.394486 
102*2040.394486 102*2036.675221 
102*2036.675221 102*2032.955957 
102*2032.955957 102*2029.236692 
102*2029.236692 102*2025.517427 
102*2025.517427 102*2021.798162 
102*2021.798162 102*2018.078897 
102*2018.078897 102*2014.359632 
102*2014.359632 102*2010.640368 
102*2010.640368 102*2006.921103 
102*2006.921103 102*2003.201838 
102*2003.201838 102*1999.482573 
102*1999.482573 102*1995.763308 
102*1995.763308 102*1992.044043 
102*1992.044043 102*1988.324779 
102*1988.324779 102*1984.605514 
102*1984.605514 102*1980.886249 
102*1980.886249 102*1977.166984 
102*1977.166984 102*1973.447719 
102*1973.447719 102*1969.728454 
102*1969.728454 102*1966.009190 
102*1966.009190 102*1962.289925 
102*1962.289925 102*1958.570660 
102*1958.570660 102*1954.851395 
102*1954.851395 102*1951.132130 
102*1951.132130 102*1947.412865 
102*1947.412865 102*1943.693601 
102*1943.693601 102*1939.974336 
102*1939.974336 102*1936.255071 
102*1936.255071 102*1932.535806 
102*1932.535806 102*1928.816541 
102*1928.816541 102*1925.097277 
102*1925.097277 102*1921.378012 
102*2111.060518 102*2107.341253 
102*2107.341253 102*2103.621988 
102*2103.621988 102*2099.902723 
102*2099.902723 102*2096.183459 
102*2096.183459 102*2092.464194 
102*2092.464194 102*2088.744929 
102*2088.744929 102*2085.025664 
102*2085.025664 102*2081.306399 
102*2081.306399 102*2077.587135 
102*2077.587135 102*2073.867870 
102*2073.867870 102*2070.148605 
102*2070.148605 102*2066.429340 
102*2066.429340 102*2062.710075 
102*2062.710075 102*2058.990810 
102*2058.990810 102*2055.271546 
102*2055.271546 102*2051.552281 
102*2051.552281 102*2047.833016 
102*2047.833016 102*2044.113751 
102*2044.113751 102*2040.394486 
102*2040.394486 102*2036.675221 
102*2036.675221 102*2032.955957 
102*2032.955957 102*2029.236692 
102*2029.236692 102*2025.517427 
102*2025.517427 102*2021.798162 
102*2021.798162 102*2018.078897 
102*2018.078897 102*2014.359632 
102*2014.359632 102*2010.640368 
102*2010.640368 102*2006.921103 
102*2006.921103 102*2003.201838 
102*2003.201838 102*1999.482573 
102*1999.482573 102*1995.763308 
102*1995.763308 102*1992.044043 
102*1992.044043 102*1988.324779 
102*1988.324779 102*1984.605514 
102*1984.605514 102*1980.886249 
102*1980.886249 102*1977.166984 
102*1977.166984 102*1973.447719 
102*1973.447719 102*1969.728454 
102*1969.728454 102*1966.009190 
102*1966.009190 102*1962.289925 
102*1962.289925 102*1958.570660 
102*1958.570660 102*1954.851395 
102*1954.851395 102*1951.132130 
102*1951.132130 102*1947.412865 
102*1947.412865 102*1943.693601 
102*1943.693601 102*1939.974336 
102*1939.974336 102*1936.255071 
102*1936.255071 102*1932.535806 
102*1932.535806 102*1928.816541 
102*1928.816541 102*1925.097277 
102*1925.097277 102*1921.378012 
102*2113.560518 102*2109.841253 
102*2109.841253 102*2106.121988 
102*2106.121988 102*2102.402723 
102*2102.402723 102*2098.683459 
102*2098.683459 102*2094.964194 
102*2094.964194 102*2091.244929 
102*2091.244929 102*2087.525664 
102*2087.525664 102*2083.806399 
102*2083.806399 102*2080.087135 
102*2080.087135 102*2076.367870 
102*2076.367870 102*2072.648605 
102*2072.648605 102*2068.929340 
102*2068.929340 102*2065.210075 
102*2065.210075 102*2061.490810 
102*2061.490810 102*2057.771546 
102*2057.771546 102*2054.052281 
102*2054.052281 102*2050.333016 
102*2050.333016 102*2046.613751 
102*2046.613751 102*2042.894486 
102*2042.894486 102*2039.175221 
102*2039.175221 102*2035.455957 
102*2035.455957 102*2031.736692 
102*2031.736692 102*2028.017427 
102*2028.017427 102*2024.298162 
102*2024.298162 102*2020.578897 
102*2020.578897 102*2016.859632 
102*2016.859632 102*2013.140368 
102*2013.140368 102*2009.421103 
102*2009.421103 102*2005.701838 
102*2005.701838 102*2001.982573 
102*2001.982573 102*1998.263308 
102*1998.263308 102*1994.544043 
102*1994.544043 102*1990.824779 
102*1990.824779 102*1987.105514 
102*1987.105514 102*1983.386249 
102*1983.386249 102*1979.666984 
102*1979.666984 102*1975.947719 
102*1975.947719 102*1972.228454 
102*1972.228454 102*1968.509190 
102*1968.509190 102*1964.789925 
102*1964.789925 102*1961.070660 
102*1961.070660 102*1957.351395 
102*1957.351395 102*1953.632130 
102*1953.632130 102*1949.912865 
102*1949.912865 102*1946.193601 
102*1946.193601 102*1942.474336 
102*1942.474336 102*1938.755071 
102*1938.755071 102*1935.035806 
102*1935.035806 102*1931.316541 
102*1931.316541 102*1927.597277 
102*1927.597277 102*1923.878012 
102*2113.560518 102*2109.841253 
102*2109.841253 102*2106.121988 
102*2106.121988 102*2102.402723 
102*2102.402723 102*2098.683459 
102*2098.683459 102*2094.964194 
102*2094.964194 102*2091.244929 
102*2091.244929 102*2087.525664 
102*2087.525664 102*2083.806399 
102*2083.806399 102*2080.087135 
102*2080.087135 102*2076.367870 
102*2076.367870 102*2072.648605 
102*2072.648605 102*2068.929340 
102*2068.929340 102*2065.210075 
102*2065.210075 102*2061.490810 
102*2061.490810 102*2057.771546 
102*2057.771546 102*2054.052281 
102*2054.052281 102*2050.333016 
102*2050.333016 102*2046.613751 
102*2046.613751 102*2042.894486 
102*2042.894486 102*2039.175221 
102*2039.175221 102*2035.455957 
102*2035.455957 102*2031.736692 
102*2031.736692 102*2028.017427 
102*2028.017427 102*2024.298162 
102*2024.298162 102*2020.578897 
102*2020.578897 102*2016.859632 
102*2016.859632 102*2013.140368 
102*2013.140368 102*2009.421103 
102*2009.421103 102*2005.701838 
102*2005.701838 102*2001.982573 
102*2001.982573 102*1998.263308 
102*1998.263308 102*1994.544043 
102*1994.544043 102*1990.824779 
102*1990.824779 102*1987.105514 
102*1987.105514 102*1983.386249 
102*1983.386249 102*1979.666984 
102*1979.666984 102*1975.947719 
102*1975.947719 102*1972.228454 
102*1972.228454 102*1968.509190 
102*1968.509190 102*1964.789925 
102*1964.789925 102*1961.070660 
102*1961.070660 102*1957.351395 
102*1957.351395 102*1953.632130 
102*1953.632130 102*1949.912865 
102*1949.912865 102*1946.193601 
102*1946.193601 102*1942.474336 
102*1942.474336 102*1938.755071 
102*1938.755071 102*1935.035806 
102*1935.035806 102*1931.316541 
102*1931.316541 102*1927.597277 
102*1927.597277 102*1923.878012 
102*2116.060518 102*2112.341253 
102*2112.341253 102*2108.621988 
102*2108.621988 102*2104.902723 
102*2104.902723 102*2101.183459 
102*2101.183459 102*2097.464194 
102*2097.464194 102*2093.744929 
102*2093.744929 102*2090.025664 
102*2090.025664 102*2086.306399 
102*2086.306399 102*2082.587135 
102*2082.587135 102*2078.867870 
102*2078.867870 102*2075.148605 
102*2075.148605 102*2071.429340 
102*2071.429340 102*2067.710075 
102*2067.710075 102*2063.990810 
102*2063.990810 102*2060.271546 
102*2060.271546 102*2056.552281 
102*2056.552281 102*2052.833016 
102*2052.833016 102*2049.113751 
102*2049.113751 102*2045.394486 
102*2045.394486 102*2041.675221 
102*2041.675221 102*2037.955957 
102*2037.955957 102*2034.236692 
102*2034.236692 102*2030.517427 
102*2030.517427 102*2026.798162 
102*2026.798162 102*2023.078897 
102*2023.078897 102*2019.359632 
102*2019.359632 102*2015.640368 
102*2015.640368 102*2011.921103 
102*2011.921103 102*2008.201838 
102*2008.201838 102*2004.482573 
102*2004.482573 102*2000.763308 
102*2000.763308 102*1997.044043 
102*1997.044043 102*1993.324779 
102*1993.324779 102*1989.605514 
102*1989.605514 102*1985.886249 
102*1985.886249 102*1982.166984 
102*1982.166984 102*1978.447719 
102*1978.447719 102*1974.728454 
102*1974.728454 102*1971.009190 
102*1971.009190 102*1967.289925 
102*1967.289925 102*1963.570660 
102*1963.570660 102*1959.851395 
102*1959.851395 102*1956.132130 
102*1956.132130 102*1952.412865 
102*1952.412865 102*1948.693601 
102*1948.693601 102*1944.974336 
102*1944.974336 102*1941.255071 
102*1941.255071 102*1937.535806 
102*1937.535806 102*1933.816541 
102*1933.816541 102*1930.097277 
102*1930.097277 102*1926.378012 
102*2116.060518 102*2112.341253 
102*2112.341253 102*2108.621988 
102*2108.621988 102*2104.902723 
102*2104.902723 102*2101.183459 
102*2101.183459 102*2097.464194 
102*2097.464194 102*2093.744929 
102*2093.744929 102*2090.025664 
102*2090.025664 102*2086.306399 
102*2086.306399 102*2082.587135 
102*2082.587135 102*2078.867870 
102*2078.867870 102*2075.148605 
102*2075.148605 102*2071.429340 
102*2071.429340 102*2067.710075 
102*2067.710075 102*2063.990810 
102*2063.990810 102*2060.271546 
102*2060.271546 102*2056.552281 
102*2056.552281 102*2052.833016 
102*2052.833016 102*2049.113751 
102*2049.113751 102*2045.394486 
102*2045.394486 102*2041.675221 
102*2041.675221 102*2037.955957 
102*2037.955957 102*2034.236692 
102*2034.236692 102*2030.517427 
102*2030.517427 102*2026.798162 
102*2026.798162 102*2023.078897 
102*2023.078897 102*2019.359632 
102*2019.359632 102*2015.640368 
102*2015.640368 102*2011.921103 
102*2011.921103 102*2008.201838 
102*2008.201838 102*2004.482573 
102*2004.482573 102*2000.763308 
102*2000.763308 102*1997.044043 
102*1997.044043 102*1993.324779 
102*1993.324779 102*1989.605514 
102*1989.605514 102*1985.886249 
102*1985.886249 102*1982.166984 
102*1982.166984 102*1978.447719 
102*1978.447719 102*1974.728454 
102*1974.728454 102*1971.009190 
102*1971.009190 102*1967.289925 
102*1967.289925 102*1963.570660 
102*1963.570660 102*1959.851395 
102*1959.851395 102*1956.132130 
102*1956.132130 102*1952.412865 
102*1952.412865 102*1948.693601 
102*1948.693601 102*1944.974336 
102*1944.974336 102*1941.255071 
102*1941.255071 102*1937.535806 
102*1937.535806 102*1933.816541 
102*1933.816541 102*1930.097277 
102*1930.097277 102*1926.378012 
102*2118.560518 102*2114.841253 
102*2114.841253 102*2111.121988 
102*2111.121988 102*2107.402723 
102*2107.402723 102*2103.683459 
102*2103.683459 102*2099.964194 
102*2099.964194 102*2096.244929 
102*2096.244929 102*2092.525664 
102*2092.525664 102*2088.806399 
102*2088.806399 102*2085.087135 
102*2085.087135 102*2081.367870 
102*2081.367870 102*2077.648605 
102*2077.648605 102*2073.929340 
102*2073.929340 102*2070.210075 
102*2070.210075 102*2066.490810 
102*2066.490810 102*2062.771546 
102*2062.771546 102*2059.052281 
102*2059.052281 102*2055.333016 
102*2055.333016 102*2051.613751 
102*2051.613751 102*2047.894486 
102*2047.894486 102*2044.175221 
102*2044.175221 102*2040.455957 
102*2040.455957 102*2036.736692 
102*2036.736692 102*2033.017427 
102*2033.017427 102*2029.298162 
102*2029.298162 102*2025.578897 
102*2025.578897 102*2021.859632 
102*2021.859632 102*2018.140368 
102*2018.140368 102*2014.421103 
102*2014.421103 102*2010.701838 
102*2010.701838 102*2006.982573 
102*2006.982573 102*2003.263308 
102*2003.263308 102*1999.544043 
102*1999.544043 102*1995.824779 
102*1995.824779 102*1992.105514 
102*1992.105514 102*1988.386249 
102*1988.386249 102*1984.666984 
102*1984.666984 102*1980.947719 
102*1980.947719 102*1977.228454 
102*1977.228454 102*1973.509190 
102*1973.509190 102*1969.789925 
102*1969.789925 102*1966.070660 
102*1966.070660 102*1962.351395 
102*1962.351395 102*1958.632130 
102*1958.632130 102*1954.912865 
102*1954.912865 102*1951.193601 
102*1951.193601 102*1947.474336 
102*1947.474336 102*1943.755071 
102*1943.755071 102*1940.035806 
102*1940.035806 102*1936.316541 
102*1936.316541 102*1932.597277 
102*1932.597277 102*1928.878012 
102*2118.560518 102*2114.841253 
102*2114.841253 102*2111.121988 
102*2111.121988 102*2107.402723 
102*2107.402723 102*2103.683459 
102*2103.683459 102*2099.964194 
102*2099.964194 102*2096.244929 
102*2096.244929 102*2092.525664 
102*2092.525664 102*2088.806399 
102*2088.806399 102*2085.087135 
102*2085.087135 102*2081.367870 
102*2081.367870 102*2077.648605 
102*2077.648605 102*2073.929340 
102*2073.929340 102*2070.210075 
102*2070.210075 102*2066.490810 
102*2066.490810 102*2062.771546 
102*2062.771546 102*2059.052281 
102*2059.052281 102*2055.333016 
102*2055.333016 102*2051.613751 
102*2051.613751 102*2047.894486 
102*2047.894486 102*2044.175221 
102*2044.175221 102*2040.455957 
102*2040.455957 102*2036.736692 
102*2036.736692 102*2033.017427 
102*2033.017427 102*2029.298162 
102*2029.298162 102*2025.578897 
102*2025.578897 102*2021.859632 
102*2021.859632 102*2018.140368 
102*2018.140368 102*2014.421103 
102*2014.421103 102*2010.701838 
102*2010.701838 102*2006.982573 
102*2006.982573 102*2003.263308 
102*2003.263308 102*1999.544043 
102*1999.544043 102*1995.824779 
102*1995.824779 102*1992.105514 
102*1992.105514 102*1988.386249 
102*1988.386249 102*1984.666984 
102*1984.666984 102*1980.947719 
102*1980.947719 102*1977.228454 
102*1977.228454 102*1973.509190 
102*1973.509190 102*1969.789925 
102*1969.789925 102*1966.070660 
102*1966.070660 102*1962.351395 
102*1962.351395 102*1958.632130 
102*1958.632130 102*1954.912865 
102*1954.912865 102*1951.193601 
102*1951.193601 102*1947.474336 
102*1947.474336 102*1943.755071 
102*1943.755071 102*1940.035806 
102*1940.035806 102*1936.316541 
102*1936.316541 102*1932.597277 
102*1932.597277 102*1928.878012 
102*2121.060518 102*2117.341253 
102*2117.341253 102*2113.621988 
102*2113.621988 102*2109.902723 
102*2109.902723 102*2106.183459 
102*2106.183459 102*2102.464194 
102*2102.464194 102*2098.744929 
102*2098.744929 102*2095.025664 
102*2095.025664 102*2091.306399 
102*2091.306399 102*2087.587135 
102*2087.587135 102*2083.867870 
102*2083.867870 102*2080.148605 
102*2080.148605 102*2076.429340 
102*2076.429340 102*2072.710075 
102*2072.710075 102*2068.990810 
102*2068.990810 102*2065.271546 
102*2065.271546 102*2061.552281 
102*2061.552281 102*2057.833016 
102*2057.833016 102*2054.113751 
102*2054.113751 102*2050.394486 
102*2050.394486 102*2046.675221 
102*2046.675221 102*2042.955957 
102*2042.955957 102*2039.236692 
102*2039.236692 102*2035.517427 
102*2035.517427 102*2031.798162 
102*2031.798162 102*2028.078897 
102*2028.078897 102*2024.359632 
102*2024.359632 102*2020.640368 
102*2020.640368 102*2016.921103 
102*2016.921103 102*2013.201838 
102*2013.201838 102*2009.482573 
102*2009.482573 102*2005.763308 
102*2005.763308 102*2002.044043 
102*2002.044043 102*1998.324779 
102*1998.324779 102*1994.605514 
102*1994.605514 102*1990.886249 
102*1990.886249 102*1987.166984 
102*1987.166984 102*1983.447719 
102*1983.447719 102*1979.728454 
102*1979.728454 102*1976.009190 
102*1976.009190 102*1972.289925 
102*1972.289925 102*1968.570660 