ZCORN
102*2056.435024 102*2054.305400 
102*2054.305400 102*2052.175777 
102*2052.175777 102*2050.046153 
102*2050.046153 102*2047.916530 
102*2047.916530 102*2045.786906 
102*2045.786906 102*2043.657283 
102*2043.657283 102*2041.527659 
102*2041.527659 102*2039.398036 
102*2039.398036 102*2037.268412 
102*2037.268412 102*2035.138789 
102*2035.138789 102*2033.009165 
102*2033.009165 102*2030.879541 
102*2030.879541 102*2028.749918 
102*2028.749918 102*2026.620294 
102*2026.620294 102*2024.490671 
102*2024.490671 102*2022.361047 
102*2022.361047 102*2020.231424 
102*2020.231424 102*2018.101800 
102*2018.101800 102*2015.972177 
102*2015.972177 102*2013.842553 
102*2013.842553 102*2011.712930 
102*2011.712930 102*2009.583306 
102*2009.583306 102*2007.453682 
102*2007.453682 102*2005.324059 
102*2005.324059 102*2003.194435 
102*2003.194435 102*2001.064812 
102*2001.064812 102*1998.935188 
102*1998.935188 102*1996.805565 
102*1996.805565 102*1994.675941 
102*1994.675941 102*1992.546318 
102*1992.546318 102*1990.416694 
102*1990.416694 102*1988.287070 
102*1988.287070 102*1986.157447 
102*1986.157447 102*1984.027823 
102*1984.027823 102*1981.898200 
102*1981.898200 102*1979.768576 
102*1979.768576 102*1977.638953 
102*1977.638953 102*1975.509329 
102*1975.509329 102*1973.379706 
102*1973.379706 102*1971.250082 
102*1971.250082 102*1969.120459 
102*1969.120459 102*1966.990835 
102*1966.990835 102*1964.861211 
102*1964.861211 102*1962.731588 
102*1962.731588 102*1960.601964 
102*1960.601964 102*1958.472341 
102*1958.472341 102*1956.342717 
102*1956.342717 102*1954.213094 
102*1954.213094 102*1952.083470 
102*1952.083470 102*1949.953847 
102*1949.953847 102*1947.824223 
102*2058.935024 102*2056.805400 
102*2056.805400 102*2054.675777 
102*2054.675777 102*2052.546153 
102*2052.546153 102*2050.416530 
102*2050.416530 102*2048.286906 
102*2048.286906 102*2046.157283 
102*2046.157283 102*2044.027659 
102*2044.027659 102*2041.898036 
102*2041.898036 102*2039.768412 
102*2039.768412 102*2037.638789 
102*2037.638789 102*2035.509165 
102*2035.509165 102*2033.379541 
102*2033.379541 102*2031.249918 
102*2031.249918 102*2029.120294 
102*2029.120294 102*2026.990671 
102*2026.990671 102*2024.861047 
102*2024.861047 102*2022.731424 
102*2022.731424 102*2020.601800 
102*2020.601800 102*2018.472177 
102*2018.472177 102*2016.342553 
102*2016.342553 102*2014.212930 
102*2014.212930 102*2012.083306 
102*2012.083306 102*2009.953682 
102*2009.953682 102*2007.824059 
102*2007.824059 102*2005.694435 
102*2005.694435 102*2003.564812 
102*2003.564812 102*2001.435188 
102*2001.435188 102*1999.305565 
102*1999.305565 102*1997.175941 
102*1997.175941 102*1995.046318 
102*1995.046318 102*1992.916694 
102*1992.916694 102*1990.787070 
102*1990.787070 102*1988.657447 
102*1988.657447 102*1986.527823 
102*1986.527823 102*1984.398200 
102*1984.398200 102*1982.268576 
102*1982.268576 102*1980.138953 
102*1980.138953 102*1978.009329 
102*1978.009329 102*1975.879706 
102*1975.879706 102*1973.750082 
102*1973.750082 102*1971.620459 
102*1971.620459 102*1969.490835 
102*1969.490835 102*1967.361211 
102*1967.361211 102*1965.231588 
102*1965.231588 102*1963.101964 
102*1963.101964 102*1960.972341 
102*1960.972341 102*1958.842717 
102*1958.842717 102*1956.713094 
102*1956.713094 102*1954.583470 
102*1954.583470 102*1952.453847 
102*1952.453847 102*1950.324223 
102*2058.935024 102*2056.805400 
102*2056.805400 102*2054.675777 
102*2054.675777 102*2052.546153 
102*2052.546153 102*2050.416530 
102*2050.416530 102*2048.286906 
102*2048.286906 102*2046.157283 
102*2046.157283 102*2044.027659 
102*2044.027659 102*2041.898036 
102*2041.898036 102*2039.768412 
102*2039.768412 102*2037.638789 
102*2037.638789 102*2035.509165 
102*2035.509165 102*2033.379541 
102*2033.379541 102*2031.249918 
102*2031.249918 102*2029.120294 
102*2029.120294 102*2026.990671 
102*2026.990671 102*2024.861047 
102*2024.861047 102*2022.731424 
102*2022.731424 102*2020.601800 
102*2020.601800 102*2018.472177 
102*2018.472177 102*2016.342553 
102*2016.342553 102*2014.212930 
102*2014.212930 102*2012.083306 
102*2012.083306 102*2009.953682 
102*2009.953682 102*2007.824059 
102*2007.824059 102*2005.694435 
102*2005.694435 102*2003.564812 
102*2003.564812 102*2001.435188 
102*2001.435188 102*1999.305565 
102*1999.305565 102*1997.175941 
102*1997.175941 102*1995.046318 
102*1995.046318 102*1992.916694 
102*1992.916694 102*1990.787070 
102*1990.787070 102*1988.657447 
102*1988.657447 102*1986.527823 
102*1986.527823 102*1984.398200 
102*1984.398200 102*1982.268576 
102*1982.268576 102*1980.138953 
102*1980.138953 102*1978.009329 
102*1978.009329 102*1975.879706 
102*1975.879706 102*1973.750082 
102*1973.750082 102*1971.620459 
102*1971.620459 102*1969.490835 
102*1969.490835 102*1967.361211 
102*1967.361211 102*1965.231588 
102*1965.231588 102*1963.101964 
102*1963.101964 102*1960.972341 
102*1960.972341 102*1958.842717 
102*1958.842717 102*1956.713094 
102*1956.713094 102*1954.583470 
102*1954.583470 102*1952.453847 
102*1952.453847 102*1950.324223 
102*2061.435024 102*2059.305400 
102*2059.305400 102*2057.175777 
102*2057.175777 102*2055.046153 
102*2055.046153 102*2052.916530 
102*2052.916530 102*2050.786906 
102*2050.786906 102*2048.657283 
102*2048.657283 102*2046.527659 
102*2046.527659 102*2044.398036 
102*2044.398036 102*2042.268412 
102*2042.268412 102*2040.138789 
102*2040.138789 102*2038.009165 
102*2038.009165 102*2035.879541 
102*2035.879541 102*2033.749918 
102*2033.749918 102*2031.620294 
102*2031.620294 102*2029.490671 
102*2029.490671 102*2027.361047 
102*2027.361047 102*2025.231424 
102*2025.231424 102*2023.101800 
102*2023.101800 102*2020.972177 
102*2020.972177 102*2018.842553 
102*2018.842553 102*2016.712930 
102*2016.712930 102*2014.583306 
102*2014.583306 102*2012.453682 
102*2012.453682 102*2010.324059 
102*2010.324059 102*2008.194435 
102*2008.194435 102*2006.064812 
102*2006.064812 102*2003.935188 
102*2003.935188 102*2001.805565 
102*2001.805565 102*1999.675941 
102*1999.675941 102*1997.546318 
102*1997.546318 102*1995.416694 
102*1995.416694 102*1993.287070 
102*1993.287070 102*1991.157447 
102*1991.157447 102*1989.027823 
102*1989.027823 102*1986.898200 
102*1986.898200 102*1984.768576 
102*1984.768576 102*1982.638953 
102*1982.638953 102*1980.509329 
102*1980.509329 102*1978.379706 
102*1978.379706 102*1976.250082 
102*1976.250082 102*1974.120459 
102*1974.120459 102*1971.990835 
102*1971.990835 102*1969.861211 
102*1969.861211 102*1967.731588 
102*1967.731588 102*1965.601964 
102*1965.601964 102*1963.472341 
102*1963.472341 102*1961.342717 
102*1961.342717 102*1959.213094 
102*1959.213094 102*1957.083470 
102*1957.083470 102*1954.953847 
102*1954.953847 102*1952.824223 
102*2061.435024 102*2059.305400 
102*2059.305400 102*2057.175777 
102*2057.175777 102*2055.046153 
102*2055.046153 102*2052.916530 
102*2052.916530 102*2050.786906 
102*2050.786906 102*2048.657283 
102*2048.657283 102*2046.527659 
102*2046.527659 102*2044.398036 
102*2044.398036 102*2042.268412 
102*2042.268412 102*2040.138789 
102*2040.138789 102*2038.009165 
102*2038.009165 102*2035.879541 
102*2035.879541 102*2033.749918 
102*2033.749918 102*2031.620294 
102*2031.620294 102*2029.490671 
102*2029.490671 102*2027.361047 
102*2027.361047 102*2025.231424 
102*2025.231424 102*2023.101800 
102*2023.101800 102*2020.972177 
102*2020.972177 102*2018.842553 
102*2018.842553 102*2016.712930 
102*2016.712930 102*2014.583306 
102*2014.583306 102*2012.453682 
102*2012.453682 102*2010.324059 
102*2010.324059 102*2008.194435 
102*2008.194435 102*2006.064812 
102*2006.064812 102*2003.935188 
102*2003.935188 102*2001.805565 
102*2001.805565 102*1999.675941 
102*1999.675941 102*1997.546318 
102*1997.546318 102*1995.416694 
102*1995.416694 102*1993.287070 
102*1993.287070 102*1991.157447 
102*1991.157447 102*1989.027823 
102*1989.027823 102*1986.898200 
102*1986.898200 102*1984.768576 
102*1984.768576 102*1982.638953 
102*1982.638953 102*1980.509329 
102*1980.509329 102*1978.379706 
102*1978.379706 102*1976.250082 
102*1976.250082 102*1974.120459 
102*1974.120459 102*1971.990835 
102*1971.990835 102*1969.861211 
102*1969.861211 102*1967.731588 
102*1967.731588 102*1965.601964 
102*1965.601964 102*1963.472341 
102*1963.472341 102*1961.342717 
102*1961.342717 102*1959.213094 
102*1959.213094 102*1957.083470 
102*1957.083470 102*1954.953847 
102*1954.953847 102*1952.824223 
102*2063.935024 102*2061.805400 
102*2061.805400 102*2059.675777 
102*2059.675777 102*2057.546153 
102*2057.546153 102*2055.416530 
102*2055.416530 102*2053.286906 
102*2053.286906 102*2051.157283 
102*2051.157283 102*2049.027659 
102*2049.027659 102*2046.898036 
102*2046.898036 102*2044.768412 
102*2044.768412 102*2042.638789 
102*2042.638789 102*2040.509165 
102*2040.509165 102*2038.379541 
102*2038.379541 102*2036.249918 
102*2036.249918 102*2034.120294 
102*2034.120294 102*2031.990671 
102*2031.990671 102*2029.861047 
102*2029.861047 102*2027.731424 
102*2027.731424 102*2025.601800 
102*2025.601800 102*2023.472177 
102*2023.472177 102*2021.342553 
102*2021.342553 102*2019.212930 
102*2019.212930 102*2017.083306 
102*2017.083306 102*2014.953682 
102*2014.953682 102*2012.824059 
102*2012.824059 102*2010.694435 
102*2010.694435 102*2008.564812 
102*2008.564812 102*2006.435188 
102*2006.435188 102*2004.305565 
102*2004.305565 102*2002.175941 
102*2002.175941 102*2000.046318 
102*2000.046318 102*1997.916694 
102*1997.916694 102*1995.787070 
102*1995.787070 102*1993.657447 
102*1993.657447 102*1991.527823 
102*1991.527823 102*1989.398200 
102*1989.398200 102*1987.268576 
102*1987.268576 102*1985.138953 
102*1985.138953 102*1983.009329 
102*1983.009329 102*1980.879706 
102*1980.879706 102*1978.750082 
102*1978.750082 102*1976.620459 
102*1976.620459 102*1974.490835 
102*1974.490835 102*1972.361211 
102*1972.361211 102*1970.231588 
102*1970.231588 102*1968.101964 
102*1968.101964 102*1965.972341 
102*1965.972341 102*1963.842717 
102*1963.842717 102*1961.713094 
102*1961.713094 102*1959.583470 
102*1959.583470 102*1957.453847 
102*1957.453847 102*1955.324223 
102*2063.935024 102*2061.805400 
102*2061.805400 102*2059.675777 
102*2059.675777 102*2057.546153 
102*2057.546153 102*2055.416530 
102*2055.416530 102*2053.286906 
102*2053.286906 102*2051.157283 
102*2051.157283 102*2049.027659 
102*2049.027659 102*2046.898036 
102*2046.898036 102*2044.768412 
102*2044.768412 102*2042.638789 
102*2042.638789 102*2040.509165 
102*2040.509165 102*2038.379541 
102*2038.379541 102*2036.249918 
102*2036.249918 102*2034.120294 
102*2034.120294 102*2031.990671 
102*2031.990671 102*2029.861047 
102*2029.861047 102*2027.731424 
102*2027.731424 102*2025.601800 
102*2025.601800 102*2023.472177 
102*2023.472177 102*2021.342553 
102*2021.342553 102*2019.212930 
102*2019.212930 102*2017.083306 
102*2017.083306 102*2014.953682 
102*2014.953682 102*2012.824059 
102*2012.824059 102*2010.694435 
102*2010.694435 102*2008.564812 
102*2008.564812 102*2006.435188 
102*2006.435188 102*2004.305565 
102*2004.305565 102*2002.175941 
102*2002.175941 102*2000.046318 
102*2000.046318 102*1997.916694 
102*1997.916694 102*1995.787070 
102*1995.787070 102*1993.657447 
102*1993.657447 102*1991.527823 
102*1991.527823 102*1989.398200 
102*1989.398200 102*1987.268576 
102*1987.268576 102*1985.138953 
102*1985.138953 102*1983.009329 
102*1983.009329 102*1980.879706 
102*1980.879706 102*1978.750082 
102*1978.750082 102*1976.620459 
102*1976.620459 102*1974.490835 
102*1974.490835 102*1972.361211 
102*1972.361211 102*1970.231588 
102*1970.231588 102*1968.101964 
102*1968.101964 102*1965.972341 
102*1965.972341 102*1963.842717 
102*1963.842717 102*1961.713094 
102*1961.713094 102*1959.583470 
102*1959.583470 102*1957.453847 
102*1957.453847 102*1955.324223 
102*2066.435024 102*2064.305400 
102*2064.305400 102*2062.175777 
102*2062.175777 102*2060.046153 
102*2060.046153 102*2057.916530 
102*2057.916530 102*2055.786906 
102*2055.786906 102*2053.657283 
102*2053.657283 102*2051.527659 
102*2051.527659 102*2049.398036 
102*2049.398036 102*2047.268412 
102*2047.268412 102*2045.138789 
102*2045.138789 102*2043.009165 
102*2043.009165 102*2040.879541 
102*2040.879541 102*2038.749918 
102*2038.749918 102*2036.620294 
102*2036.620294 102*2034.490671 
102*2034.490671 102*2032.361047 
102*2032.361047 102*2030.231424 
102*2030.231424 102*2028.101800 
102*2028.101800 102*2025.972177 
102*2025.972177 102*2023.842553 
102*2023.842553 102*2021.712930 
102*2021.712930 102*2019.583306 
102*2019.583306 102*2017.453682 
102*2017.453682 102*2015.324059 
102*2015.324059 102*2013.194435 
102*2013.194435 102*2011.064812 
102*2011.064812 102*2008.935188 
102*2008.935188 102*2006.805565 
102*2006.805565 102*2004.675941 
102*2004.675941 102*2002.546318 
102*2002.546318 102*2000.416694 
102*2000.416694 102*1998.287070 
102*1998.287070 102*1996.157447 
102*1996.157447 102*1994.027823 
102*1994.027823 102*1991.898200 
102*1991.898200 102*1989.768576 
102*1989.768576 102*1987.638953 
102*1987.638953 102*1985.509329 
102*1985.509329 102*1983.379706 
102*1983.379706 102*1981.250082 
102*1981.250082 102*1979.120459 
102*1979.120459 102*1976.990835 
102*1976.990835 102*1974.861211 
102*1974.861211 102*1972.731588 
102*1972.731588 102*1970.601964 
102*1970.601964 102*1968.472341 
102*1968.472341 102*1966.342717 
102*1966.342717 102*1964.213094 
102*1964.213094 102*1962.083470 
102*1962.083470 102*1959.953847 
102*1959.953847 102*1957.824223 
102*2066.435024 102*2064.305400 
102*2064.305400 102*2062.175777 
102*2062.175777 102*2060.046153 
102*2060.046153 102*2057.916530 
102*2057.916530 102*2055.786906 
102*2055.786906 102*2053.657283 
102*2053.657283 102*2051.527659 
102*2051.527659 102*2049.398036 
102*2049.398036 102*2047.268412 
102*2047.268412 102*2045.138789 
102*2045.138789 102*2043.009165 
102*2043.009165 102*2040.879541 
102*2040.879541 102*2038.749918 
102*2038.749918 102*2036.620294 
102*2036.620294 102*2034.490671 
102*2034.490671 102*2032.361047 
102*2032.361047 102*2030.231424 
102*2030.231424 102*2028.101800 
102*2028.101800 102*2025.972177 
102*2025.972177 102*2023.842553 
102*2023.842553 102*2021.712930 
102*2021.712930 102*2019.583306 
102*2019.583306 102*2017.453682 
102*2017.453682 102*2015.324059 
102*2015.324059 102*2013.194435 
102*2013.194435 102*2011.064812 
102*2011.064812 102*2008.935188 
102*2008.935188 102*2006.805565 
102*2006.805565 102*2004.675941 
102*2004.675941 102*2002.546318 
102*2002.546318 102*2000.416694 
102*2000.416694 102*1998.287070 
102*1998.287070 102*1996.157447 
102*1996.157447 102*1994.027823 
102*1994.027823 102*1991.898200 
102*1991.898200 102*1989.768576 
102*1989.768576 102*1987.638953 
102*1987.638953 102*1985.509329 
102*1985.509329 102*1983.379706 
102*1983.379706 102*1981.250082 
102*1981.250082 102*1979.120459 
102*1979.120459 102*1976.990835 
102*1976.990835 102*1974.861211 
102*1974.861211 102*1972.731588 
102*1972.731588 102*1970.601964 
102*1970.601964 102*1968.472341 
102*1968.472341 102*1966.342717 
102*1966.342717 102*1964.213094 
102*1964.213094 102*1962.083470 
102*1962.083470 102*1959.953847 
102*1959.953847 102*1957.824223 
102*2068.935024 102*2066.805400 
102*2066.805400 102*2064.675777 
102*2064.675777 102*2062.546153 
102*2062.546153 102*2060.416530 
102*2060.416530 102*2058.286906 
102*2058.286906 102*2056.157283 
102*2056.157283 102*2054.027659 
102*2054.027659 102*2051.898036 
102*2051.898036 102*2049.768412 
102*2049.768412 102*2047.638789 
102*2047.638789 102*2045.509165 
102*2045.509165 102*2043.379541 
102*2043.379541 102*2041.249918 
102*2041.249918 102*2039.120294 
102*2039.120294 102*2036.990671 
102*2036.990671 102*2034.861047 
102*2034.861047 102*2032.731424 
102*2032.731424 102*2030.601800 
102*2030.601800 102*2028.472177 
102*2028.472177 102*2026.342553 
102*2026.342553 102*2024.212930 
102*2024.212930 102*2022.083306 
102*2022.083306 102*2019.953682 
102*2019.953682 102*2017.824059 
102*2017.824059 102*2015.694435 
102*2015.694435 102*2013.564812 
102*2013.564812 102*2011.435188 
102*2011.435188 102*2009.305565 
102*2009.305565 102*2007.175941 
102*2007.175941 102*2005.046318 
102*2005.046318 102*2002.916694 
102*2002.916694 102*2000.787070 
102*2000.787070 102*1998.657447 
102*1998.657447 102*1996.527823 
102*1996.527823 102*1994.398200 
102*1994.398200 102*1992.268576 
102*1992.268576 102*1990.138953 
102*1990.138953 102*1988.009329 
102*1988.009329 102*1985.879706 
102*1985.879706 102*1983.750082 
102*1983.750082 102*1981.620459 
102*1981.620459 102*1979.490835 
102*1979.490835 102*1977.361211 
102*1977.361211 102*1975.231588 
102*1975.231588 102*1973.101964 
102*1973.101964 102*1970.972341 
102*1970.972341 102*1968.842717 
102*1968.842717 102*1966.713094 
102*1966.713094 102*1964.583470 
102*1964.583470 102*1962.453847 
102*1962.453847 102*1960.324223 
102*2068.935024 102*2066.805400 
102*2066.805400 102*2064.675777 
102*2064.675777 102*2062.546153 
102*2062.546153 102*2060.416530 
102*2060.416530 102*2058.286906 
102*2058.286906 102*2056.157283 
102*2056.157283 102*2054.027659 
102*2054.027659 102*2051.898036 
102*2051.898036 102*2049.768412 
102*2049.768412 102*2047.638789 
102*2047.638789 102*2045.509165 
102*2045.509165 102*2043.379541 
102*2043.379541 102*2041.249918 
102*2041.249918 102*2039.120294 
102*2039.120294 102*2036.990671 
102*2036.990671 102*2034.861047 
102*2034.861047 102*2032.731424 
102*2032.731424 102*2030.601800 
102*2030.601800 102*2028.472177 
102*2028.472177 102*2026.342553 
102*2026.342553 102*2024.212930 
102*2024.212930 102*2022.083306 
102*2022.083306 102*2019.953682 
102*2019.953682 102*2017.824059 
102*2017.824059 102*2015.694435 
102*2015.694435 102*2013.564812 
102*2013.564812 102*2011.435188 
102*2011.435188 102*2009.305565 
102*2009.305565 102*2007.175941 
102*2007.175941 102*2005.046318 
102*2005.046318 102*2002.916694 
102*2002.916694 102*2000.787070 
102*2000.787070 102*1998.657447 
102*1998.657447 102*1996.527823 
102*1996.527823 102*1994.398200 
102*1994.398200 102*1992.268576 
102*1992.268576 102*1990.138953 
102*1990.138953 102*1988.009329 
102*1988.009329 102*1985.879706 
102*1985.879706 102*1983.750082 
102*1983.750082 102*1981.620459 
102*1981.620459 102*1979.490835 
102*1979.490835 102*1977.361211 
102*1977.361211 102*1975.231588 
102*1975.231588 102*1973.101964 
102*1973.101964 102*1970.972341 
102*1970.972341 102*1968.842717 
102*1968.842717 102*1966.713094 
102*1966.713094 102*1964.583470 
102*1964.583470 102*1962.453847 
102*1962.453847 102*1960.324223 
102*2071.435024 102*2069.305400 
102*2069.305400 102*2067.175777 
102*2067.175777 102*2065.046153 
102*2065.046153 102*2062.916530 
102*2062.916530 102*2060.786906 
102*2060.786906 102*2058.657283 
102*2058.657283 102*2056.527659 
102*2056.527659 102*2054.398036 
102*2054.398036 102*2052.268412 
102*2052.268412 102*2050.138789 
102*2050.138789 102*2048.009165 
102*2048.009165 102*2045.879541 
102*2045.879541 102*2043.749918 
102*2043.749918 102*2041.620294 
102*2041.620294 102*2039.490671 
102*2039.490671 102*2037.361047 
102*2037.361047 102*2035.231424 
102*2035.231424 102*2033.101800 
102*2033.101800 102*2030.972177 
102*2030.972177 102*2028.842553 
102*2028.842553 102*2026.712930 
102*2026.712930 102*2024.583306 
102*2024.583306 102*2022.453682 
102*2022.453682 102*2020.324059 
102*2020.324059 102*2018.194435 
102*2018.194435 102*2016.064812 
102*2016.064812 102*2013.935188 
102*2013.935188 102*2011.805565 
102*2011.805565 102*2009.675941 
102*2009.675941 102*2007.546318 
102*2007.546318 102*2005.416694 
102*2005.416694 102*2003.287070 
102*2003.287070 102*2001.157447 
102*2001.157447 102*1999.027823 
102*1999.027823 102*1996.898200 
102*1996.898200 102*1994.768576 
102*1994.768576 102*1992.638953 
102*1992.638953 102*1990.509329 
102*1990.509329 102*1988.379706 
102*1988.379706 102*1986.250082 
102*1986.250082 102*1984.120459 
102*1984.120459 102*1981.990835 
102*1981.990835 102*1979.861211 
102*1979.861211 102*1977.731588 
102*1977.731588 102*1975.601964 
102*1975.601964 102*1973.472341 
102*1973.472341 102*1971.342717 
102*1971.342717 102*1969.213094 
102*1969.213094 102*1967.083470 
102*1967.083470 102*1964.953847 
102*1964.953847 102*1962.824223 
102*2071.435024 102*2069.305400 
102*2069.305400 102*2067.175777 
102*2067.175777 102*2065.046153 
102*2065.046153 102*2062.916530 
102*2062.916530 102*2060.786906 
102*2060.786906 102*2058.657283 
102*2058.657283 102*2056.527659 
102*2056.527659 102*2054.398036 
102*2054.398036 102*2052.268412 
102*2052.268412 102*2050.138789 
102*2050.138789 102*2048.009165 
102*2048.009165 102*2045.879541 
102*2045.879541 102*2043.749918 
102*2043.749918 102*2041.620294 
102*2041.620294 102*2039.490671 
102*2039.490671 102*2037.361047 
102*2037.361047 102*2035.231424 
102*2035.231424 102*2033.101800 
102*2033.101800 102*2030.972177 
102*2030.972177 102*2028.842553 
102*2028.842553 102*2026.712930 
102*2026.712930 102*2024.583306 
102*2024.583306 102*2022.453682 
102*2022.453682 102*2020.324059 
102*2020.324059 102*2018.194435 
102*2018.194435 102*2016.064812 
102*2016.064812 102*2013.935188 
102*2013.935188 102*2011.805565 
102*2011.805565 102*2009.675941 
102*2009.675941 102*2007.546318 
102*2007.546318 102*2005.416694 
102*2005.416694 102*2003.287070 
102*2003.287070 102*2001.157447 
102*2001.157447 102*1999.027823 
102*1999.027823 102*1996.898200 
102*1996.898200 102*1994.768576 
102*1994.768576 102*1992.638953 
102*1992.638953 102*1990.509329 
102*1990.509329 102*1988.379706 
102*1988.379706 102*1986.250082 
102*1986.250082 102*1984.120459 
102*1984.120459 102*1981.990835 
102*1981.990835 102*1979.861211 
102*1979.861211 102*1977.731588 
102*1977.731588 102*1975.601964 
102*1975.601964 102*1973.472341 
102*1973.472341 102*1971.342717 
102*1971.342717 102*1969.213094 
102*1969.213094 102*1967.083470 
102*1967.083470 102*1964.953847 
102*1964.953847 102*1962.824223 
102*2073.935024 102*2071.805400 
102*2071.805400 102*2069.675777 
102*2069.675777 102*2067.546153 
102*2067.546153 102*2065.416530 
102*2065.416530 102*2063.286906 
102*2063.286906 102*2061.157283 
102*2061.157283 102*2059.027659 
102*2059.027659 102*2056.898036 
102*2056.898036 102*2054.768412 
102*2054.768412 102*2052.638789 
102*2052.638789 102*2050.509165 
102*2050.509165 102*2048.379541 
102*2048.379541 102*2046.249918 
102*2046.249918 102*2044.120294 
102*2044.120294 102*2041.990671 
102*2041.990671 102*2039.861047 
102*2039.861047 102*2037.731424 
102*2037.731424 102*2035.601800 
102*2035.601800 102*2033.472177 
102*2033.472177 102*2031.342553 
102*2031.342553 102*2029.212930 
102*2029.212930 102*2027.083306 
102*2027.083306 102*2024.953682 
102*2024.953682 102*2022.824059 
102*2022.824059 102*2020.694435 
102*2020.694435 102*2018.564812 
102*2018.564812 102*2016.435188 
102*2016.435188 102*2014.305565 
102*2014.305565 102*2012.175941 
102*2012.175941 102*2010.046318 
102*2010.046318 102*2007.916694 
102*2007.916694 102*2005.787070 
102*2005.787070 102*2003.657447 
102*2003.657447 102*2001.527823 
102*2001.527823 102*1999.398200 
102*1999.398200 102*1997.268576 
102*1997.268576 102*1995.138953 
102*1995.138953 102*1993.009329 
102*1993.009329 102*1990.879706 
102*1990.879706 102*1988.750082 
102*1988.750082 102*1986.620459 
102*1986.620459 102*1984.490835 
102*1984.490835 102*1982.361211 
102*1982.361211 102*1980.231588 
102*1980.231588 102*1978.101964 
102*1978.101964 102*1975.972341 
102*1975.972341 102*1973.842717 
102*1973.842717 102*1971.713094 
102*1971.713094 102*1969.583470 
102*1969.583470 102*1967.453847 
102*1967.453847 102*1965.324223 
102*2073.935024 102*2071.805400 
102*2071.805400 102*2069.675777 
102*2069.675777 102*2067.546153 
102*2067.546153 102*2065.416530 
102*2065.416530 102*2063.286906 
102*2063.286906 102*2061.157283 
102*2061.157283 102*2059.027659 
102*2059.027659 102*2056.898036 
102*2056.898036 102*2054.768412 
102*2054.768412 102*2052.638789 
102*2052.638789 102*2050.509165 
102*2050.509165 102*2048.379541 
102*2048.379541 102*2046.249918 
102*2046.249918 102*2044.120294 
102*2044.120294 102*2041.990671 
102*2041.990671 102*2039.861047 
102*2039.861047 102*2037.731424 
102*2037.731424 102*2035.601800 
102*2035.601800 102*2033.472177 
102*2033.472177 102*2031.342553 
102*2031.342553 102*2029.212930 
102*2029.212930 102*2027.083306 
102*2027.083306 102*2024.953682 
102*2024.953682 102*2022.824059 
102*2022.824059 102*2020.694435 
102*2020.694435 102*2018.564812 
102*2018.564812 102*2016.435188 
102*2016.435188 102*2014.305565 
102*2014.305565 102*2012.175941 
102*2012.175941 102*2010.046318 
102*2010.046318 102*2007.916694 
102*2007.916694 102*2005.787070 
102*2005.787070 102*2003.657447 
102*2003.657447 102*2001.527823 
102*2001.527823 102*1999.398200 
102*1999.398200 102*1997.268576 
102*1997.268576 102*1995.138953 
102*1995.138953 102*1993.009329 
102*1993.009329 102*1990.879706 
102*1990.879706 102*1988.750082 
102*1988.750082 102*1986.620459 
102*1986.620459 102*1984.490835 
102*1984.490835 102*1982.361211 
102*1982.361211 102*1980.231588 
102*1980.231588 102*1978.101964 
102*1978.101964 102*1975.972341 
102*1975.972341 102*1973.842717 
102*1973.842717 102*1971.713094 
102*1971.713094 102*1969.583470 
102*1969.583470 102*1967.453847 
102*1967.453847 102*1965.324223 
102*2076.435024 102*2074.305400 
102*2074.305400 102*2072.175777 
102*2072.175777 102*2070.046153 
102*2070.046153 102*2067.916530 
102*2067.916530 102*2065.786906 
102*2065.786906 102*2063.657283 
102*2063.657283 102*2061.527659 
102*2061.527659 102*2059.398036 
102*2059.398036 102*2057.268412 
102*2057.268412 102*2055.138789 
102*2055.138789 102*2053.009165 
102*2053.009165 102*2050.879541 
102*2050.879541 102*2048.749918 
102*2048.749918 102*2046.620294 
102*2046.620294 102*2044.490671 
102*2044.490671 102*2042.361047 
102*2042.361047 102*2040.231424 
102*2040.231424 102*2038.101800 
102*2038.101800 102*2035.972177 
102*2035.972177 102*2033.842553 
102*2033.842553 102*2031.712930 
102*2031.712930 102*2029.583306 
102*2029.583306 102*2027.453682 
102*2027.453682 102*2025.324059 
102*2025.324059 102*2023.194435 
102*2023.194435 102*2021.064812 
102*2021.064812 102*2018.935188 
102*2018.935188 102*2016.805565 
102*2016.805565 102*2014.675941 
102*2014.675941 102*2012.546318 
102*2012.546318 102*2010.416694 
102*2010.416694 102*2008.287070 
102*2008.287070 102*2006.157447 
102*2006.157447 102*2004.027823 
102*2004.027823 102*2001.898200 
102*2001.898200 102*1999.768576 
102*1999.768576 102*1997.638953 
102*1997.638953 102*1995.509329 
102*1995.509329 102*1993.379706 
102*1993.379706 102*1991.250082 
102*1991.250082 102*1989.120459 
102*1989.120459 102*1986.990835 
102*1986.990835 102*1984.861211 
102*1984.861211 102*1982.731588 
102*1982.731588 102*1980.601964 
102*1980.601964 102*1978.472341 
102*1978.472341 102*1976.342717 
102*1976.342717 102*1974.213094 
102*1974.213094 102*1972.083470 
102*1972.083470 102*1969.953847 
102*1969.953847 102*1967.824223 
102*2076.435024 102*2074.305400 
102*2074.305400 102*2072.175777 
102*2072.175777 102*2070.046153 
102*2070.046153 102*2067.916530 
102*2067.916530 102*2065.786906 
102*2065.786906 102*2063.657283 
102*2063.657283 102*2061.527659 
102*2061.527659 102*2059.398036 
102*2059.398036 102*2057.268412 
102*2057.268412 102*2055.138789 
102*2055.138789 102*2053.009165 
102*2053.009165 102*2050.879541 
102*2050.879541 102*2048.749918 
102*2048.749918 102*2046.620294 
102*2046.620294 102*2044.490671 
102*2044.490671 102*2042.361047 
102*2042.361047 102*2040.231424 
102*2040.231424 102*2038.101800 
102*2038.101800 102*2035.972177 
102*2035.972177 102*2033.842553 
102*2033.842553 102*2031.712930 
102*2031.712930 102*2029.583306 
102*2029.583306 102*2027.453682 
102*2027.453682 102*2025.324059 
102*2025.324059 102*2023.194435 
102*2023.194435 102*2021.064812 
102*2021.064812 102*2018.935188 
102*2018.935188 102*2016.805565 
102*2016.805565 102*2014.675941 
102*2014.675941 102*2012.546318 
102*2012.546318 102*2010.416694 
102*2010.416694 102*2008.287070 
102*2008.287070 102*2006.157447 
102*2006.157447 102*2004.027823 
102*2004.027823 102*2001.898200 
102*2001.898200 102*1999.768576 
102*1999.768576 102*1997.638953 
102*1997.638953 102*1995.509329 
102*1995.509329 102*1993.379706 
102*1993.379706 102*1991.250082 
102*1991.250082 102*1989.120459 
102*1989.120459 102*1986.990835 
102*1986.990835 102*1984.861211 
102*1984.861211 102*1982.731588 
102*1982.731588 102*1980.601964 
102*1980.601964 102*1978.472341 
102*1978.472341 102*1976.342717 
102*1976.342717 102*1974.213094 
102*1974.213094 102*1972.083470 
102*1972.083470 102*1969.953847 
102*1969.953847 102*1967.824223 
102*2078.935024 102*2076.805400 
102*2076.805400 102*2074.675777 
102*2074.675777 102*2072.546153 
102*2072.546153 102*2070.416530 
102*2070.416530 102*2068.286906 
102*2068.286906 102*2066.157283 
102*2066.157283 102*2064.027659 
102*2064.027659 102*2061.898036 
102*2061.898036 102*2059.768412 
102*2059.768412 102*2057.638789 
102*2057.638789 102*2055.509165 
102*2055.509165 102*2053.379541 
102*2053.379541 102*2051.249918 
102*2051.249918 102*2049.120294 
102*2049.120294 102*2046.990671 
102*2046.990671 102*2044.861047 
102*2044.861047 102*2042.731424 
102*2042.731424 102*2040.601800 
102*2040.601800 102*2038.472177 
102*2038.472177 102*2036.342553 
102*2036.342553 102*2034.212930 
102*2034.212930 102*2032.083306 
102*2032.083306 102*2029.953682 
102*2029.953682 102*2027.824059 
102*2027.824059 102*2025.694435 
102*2025.694435 102*2023.564812 
102*2023.564812 102*2021.435188 
102*2021.435188 102*2019.305565 
102*2019.305565 102*2017.175941 
102*2017.175941 102*2015.046318 
102*2015.046318 102*2012.916694 
102*2012.916694 102*2010.787070 
102*2010.787070 102*2008.657447 
102*2008.657447 102*2006.527823 
102*2006.527823 102*2004.398200 
102*2004.398200 102*2002.268576 
102*2002.268576 102*2000.138953 
102*2000.138953 102*1998.009329 
102*1998.009329 102*1995.879706 
102*1995.879706 102*1993.750082 
102*1993.750082 102*1991.620459 