ZCORN
102*2074.021202 102*2071.227949 
102*2071.227949 102*2068.434697 
102*2068.434697 102*2065.641444 
102*2065.641444 102*2062.848191 
102*2062.848191 102*2060.054938 
102*2060.054938 102*2057.261685 
102*2057.261685 102*2054.468432 
102*2054.468432 102*2051.675179 
102*2051.675179 102*2048.881926 
102*2048.881926 102*2046.088673 
102*2046.088673 102*2043.295420 
102*2043.295420 102*2040.502167 
102*2040.502167 102*2037.708914 
102*2037.708914 102*2034.915661 
102*2034.915661 102*2032.122409 
102*2032.122409 102*2029.329156 
102*2029.329156 102*2026.535903 
102*2026.535903 102*2023.742650 
102*2023.742650 102*2020.949397 
102*2020.949397 102*2018.156144 
102*2018.156144 102*2015.362891 
102*2015.362891 102*2012.569638 
102*2012.569638 102*2009.776385 
102*2009.776385 102*2006.983132 
102*2006.983132 102*2004.189879 
102*2004.189879 102*2001.396626 
102*2001.396626 102*1998.603374 
102*1998.603374 102*1995.810121 
102*1995.810121 102*1993.016868 
102*1993.016868 102*1990.223615 
102*1990.223615 102*1987.430362 
102*1987.430362 102*1984.637109 
102*1984.637109 102*1981.843856 
102*1981.843856 102*1979.050603 
102*1979.050603 102*1976.257350 
102*1976.257350 102*1973.464097 
102*1973.464097 102*1970.670844 
102*1970.670844 102*1967.877591 
102*1967.877591 102*1965.084339 
102*1965.084339 102*1962.291086 
102*1962.291086 102*1959.497833 
102*1959.497833 102*1956.704580 
102*1956.704580 102*1953.911327 
102*1953.911327 102*1951.118074 
102*1951.118074 102*1948.324821 
102*1948.324821 102*1945.531568 
102*1945.531568 102*1942.738315 
102*1942.738315 102*1939.945062 
102*1939.945062 102*1937.151809 
102*1937.151809 102*1934.358556 
102*1934.358556 102*1931.565303 
102*2076.521202 102*2073.727949 
102*2073.727949 102*2070.934697 
102*2070.934697 102*2068.141444 
102*2068.141444 102*2065.348191 
102*2065.348191 102*2062.554938 
102*2062.554938 102*2059.761685 
102*2059.761685 102*2056.968432 
102*2056.968432 102*2054.175179 
102*2054.175179 102*2051.381926 
102*2051.381926 102*2048.588673 
102*2048.588673 102*2045.795420 
102*2045.795420 102*2043.002167 
102*2043.002167 102*2040.208914 
102*2040.208914 102*2037.415661 
102*2037.415661 102*2034.622409 
102*2034.622409 102*2031.829156 
102*2031.829156 102*2029.035903 
102*2029.035903 102*2026.242650 
102*2026.242650 102*2023.449397 
102*2023.449397 102*2020.656144 
102*2020.656144 102*2017.862891 
102*2017.862891 102*2015.069638 
102*2015.069638 102*2012.276385 
102*2012.276385 102*2009.483132 
102*2009.483132 102*2006.689879 
102*2006.689879 102*2003.896626 
102*2003.896626 102*2001.103374 
102*2001.103374 102*1998.310121 
102*1998.310121 102*1995.516868 
102*1995.516868 102*1992.723615 
102*1992.723615 102*1989.930362 
102*1989.930362 102*1987.137109 
102*1987.137109 102*1984.343856 
102*1984.343856 102*1981.550603 
102*1981.550603 102*1978.757350 
102*1978.757350 102*1975.964097 
102*1975.964097 102*1973.170844 
102*1973.170844 102*1970.377591 
102*1970.377591 102*1967.584339 
102*1967.584339 102*1964.791086 
102*1964.791086 102*1961.997833 
102*1961.997833 102*1959.204580 
102*1959.204580 102*1956.411327 
102*1956.411327 102*1953.618074 
102*1953.618074 102*1950.824821 
102*1950.824821 102*1948.031568 
102*1948.031568 102*1945.238315 
102*1945.238315 102*1942.445062 
102*1942.445062 102*1939.651809 
102*1939.651809 102*1936.858556 
102*1936.858556 102*1934.065303 
102*2076.521202 102*2073.727949 
102*2073.727949 102*2070.934697 
102*2070.934697 102*2068.141444 
102*2068.141444 102*2065.348191 
102*2065.348191 102*2062.554938 
102*2062.554938 102*2059.761685 
102*2059.761685 102*2056.968432 
102*2056.968432 102*2054.175179 
102*2054.175179 102*2051.381926 
102*2051.381926 102*2048.588673 
102*2048.588673 102*2045.795420 
102*2045.795420 102*2043.002167 
102*2043.002167 102*2040.208914 
102*2040.208914 102*2037.415661 
102*2037.415661 102*2034.622409 
102*2034.622409 102*2031.829156 
102*2031.829156 102*2029.035903 
102*2029.035903 102*2026.242650 
102*2026.242650 102*2023.449397 
102*2023.449397 102*2020.656144 
102*2020.656144 102*2017.862891 
102*2017.862891 102*2015.069638 
102*2015.069638 102*2012.276385 
102*2012.276385 102*2009.483132 
102*2009.483132 102*2006.689879 
102*2006.689879 102*2003.896626 
102*2003.896626 102*2001.103374 
102*2001.103374 102*1998.310121 
102*1998.310121 102*1995.516868 
102*1995.516868 102*1992.723615 
102*1992.723615 102*1989.930362 
102*1989.930362 102*1987.137109 
102*1987.137109 102*1984.343856 
102*1984.343856 102*1981.550603 
102*1981.550603 102*1978.757350 
102*1978.757350 102*1975.964097 
102*1975.964097 102*1973.170844 
102*1973.170844 102*1970.377591 
102*1970.377591 102*1967.584339 
102*1967.584339 102*1964.791086 
102*1964.791086 102*1961.997833 
102*1961.997833 102*1959.204580 
102*1959.204580 102*1956.411327 
102*1956.411327 102*1953.618074 
102*1953.618074 102*1950.824821 
102*1950.824821 102*1948.031568 
102*1948.031568 102*1945.238315 
102*1945.238315 102*1942.445062 
102*1942.445062 102*1939.651809 
102*1939.651809 102*1936.858556 
102*1936.858556 102*1934.065303 
102*2079.021202 102*2076.227949 
102*2076.227949 102*2073.434697 
102*2073.434697 102*2070.641444 
102*2070.641444 102*2067.848191 
102*2067.848191 102*2065.054938 
102*2065.054938 102*2062.261685 
102*2062.261685 102*2059.468432 
102*2059.468432 102*2056.675179 
102*2056.675179 102*2053.881926 
102*2053.881926 102*2051.088673 
102*2051.088673 102*2048.295420 
102*2048.295420 102*2045.502167 
102*2045.502167 102*2042.708914 
102*2042.708914 102*2039.915661 
102*2039.915661 102*2037.122409 
102*2037.122409 102*2034.329156 
102*2034.329156 102*2031.535903 
102*2031.535903 102*2028.742650 
102*2028.742650 102*2025.949397 
102*2025.949397 102*2023.156144 
102*2023.156144 102*2020.362891 
102*2020.362891 102*2017.569638 
102*2017.569638 102*2014.776385 
102*2014.776385 102*2011.983132 
102*2011.983132 102*2009.189879 
102*2009.189879 102*2006.396626 
102*2006.396626 102*2003.603374 
102*2003.603374 102*2000.810121 
102*2000.810121 102*1998.016868 
102*1998.016868 102*1995.223615 
102*1995.223615 102*1992.430362 
102*1992.430362 102*1989.637109 
102*1989.637109 102*1986.843856 
102*1986.843856 102*1984.050603 
102*1984.050603 102*1981.257350 
102*1981.257350 102*1978.464097 
102*1978.464097 102*1975.670844 
102*1975.670844 102*1972.877591 
102*1972.877591 102*1970.084339 
102*1970.084339 102*1967.291086 
102*1967.291086 102*1964.497833 
102*1964.497833 102*1961.704580 
102*1961.704580 102*1958.911327 
102*1958.911327 102*1956.118074 
102*1956.118074 102*1953.324821 
102*1953.324821 102*1950.531568 
102*1950.531568 102*1947.738315 
102*1947.738315 102*1944.945062 
102*1944.945062 102*1942.151809 
102*1942.151809 102*1939.358556 
102*1939.358556 102*1936.565303 
102*2079.021202 102*2076.227949 
102*2076.227949 102*2073.434697 
102*2073.434697 102*2070.641444 
102*2070.641444 102*2067.848191 
102*2067.848191 102*2065.054938 
102*2065.054938 102*2062.261685 
102*2062.261685 102*2059.468432 
102*2059.468432 102*2056.675179 
102*2056.675179 102*2053.881926 
102*2053.881926 102*2051.088673 
102*2051.088673 102*2048.295420 
102*2048.295420 102*2045.502167 
102*2045.502167 102*2042.708914 
102*2042.708914 102*2039.915661 
102*2039.915661 102*2037.122409 
102*2037.122409 102*2034.329156 
102*2034.329156 102*2031.535903 
102*2031.535903 102*2028.742650 
102*2028.742650 102*2025.949397 
102*2025.949397 102*2023.156144 
102*2023.156144 102*2020.362891 
102*2020.362891 102*2017.569638 
102*2017.569638 102*2014.776385 
102*2014.776385 102*2011.983132 
102*2011.983132 102*2009.189879 
102*2009.189879 102*2006.396626 
102*2006.396626 102*2003.603374 
102*2003.603374 102*2000.810121 
102*2000.810121 102*1998.016868 
102*1998.016868 102*1995.223615 
102*1995.223615 102*1992.430362 
102*1992.430362 102*1989.637109 
102*1989.637109 102*1986.843856 
102*1986.843856 102*1984.050603 
102*1984.050603 102*1981.257350 
102*1981.257350 102*1978.464097 
102*1978.464097 102*1975.670844 
102*1975.670844 102*1972.877591 
102*1972.877591 102*1970.084339 
102*1970.084339 102*1967.291086 
102*1967.291086 102*1964.497833 
102*1964.497833 102*1961.704580 
102*1961.704580 102*1958.911327 
102*1958.911327 102*1956.118074 
102*1956.118074 102*1953.324821 
102*1953.324821 102*1950.531568 
102*1950.531568 102*1947.738315 
102*1947.738315 102*1944.945062 
102*1944.945062 102*1942.151809 
102*1942.151809 102*1939.358556 
102*1939.358556 102*1936.565303 
102*2081.521202 102*2078.727949 
102*2078.727949 102*2075.934697 
102*2075.934697 102*2073.141444 
102*2073.141444 102*2070.348191 
102*2070.348191 102*2067.554938 
102*2067.554938 102*2064.761685 
102*2064.761685 102*2061.968432 
102*2061.968432 102*2059.175179 
102*2059.175179 102*2056.381926 
102*2056.381926 102*2053.588673 
102*2053.588673 102*2050.795420 
102*2050.795420 102*2048.002167 
102*2048.002167 102*2045.208914 
102*2045.208914 102*2042.415661 
102*2042.415661 102*2039.622409 
102*2039.622409 102*2036.829156 
102*2036.829156 102*2034.035903 
102*2034.035903 102*2031.242650 
102*2031.242650 102*2028.449397 
102*2028.449397 102*2025.656144 
102*2025.656144 102*2022.862891 
102*2022.862891 102*2020.069638 
102*2020.069638 102*2017.276385 
102*2017.276385 102*2014.483132 
102*2014.483132 102*2011.689879 
102*2011.689879 102*2008.896626 
102*2008.896626 102*2006.103374 
102*2006.103374 102*2003.310121 
102*2003.310121 102*2000.516868 
102*2000.516868 102*1997.723615 
102*1997.723615 102*1994.930362 
102*1994.930362 102*1992.137109 
102*1992.137109 102*1989.343856 
102*1989.343856 102*1986.550603 
102*1986.550603 102*1983.757350 
102*1983.757350 102*1980.964097 
102*1980.964097 102*1978.170844 
102*1978.170844 102*1975.377591 
102*1975.377591 102*1972.584339 
102*1972.584339 102*1969.791086 
102*1969.791086 102*1966.997833 
102*1966.997833 102*1964.204580 
102*1964.204580 102*1961.411327 
102*1961.411327 102*1958.618074 
102*1958.618074 102*1955.824821 
102*1955.824821 102*1953.031568 
102*1953.031568 102*1950.238315 
102*1950.238315 102*1947.445062 
102*1947.445062 102*1944.651809 
102*1944.651809 102*1941.858556 
102*1941.858556 102*1939.065303 
102*2081.521202 102*2078.727949 
102*2078.727949 102*2075.934697 
102*2075.934697 102*2073.141444 
102*2073.141444 102*2070.348191 
102*2070.348191 102*2067.554938 
102*2067.554938 102*2064.761685 
102*2064.761685 102*2061.968432 
102*2061.968432 102*2059.175179 
102*2059.175179 102*2056.381926 
102*2056.381926 102*2053.588673 
102*2053.588673 102*2050.795420 
102*2050.795420 102*2048.002167 
102*2048.002167 102*2045.208914 
102*2045.208914 102*2042.415661 
102*2042.415661 102*2039.622409 
102*2039.622409 102*2036.829156 
102*2036.829156 102*2034.035903 
102*2034.035903 102*2031.242650 
102*2031.242650 102*2028.449397 
102*2028.449397 102*2025.656144 
102*2025.656144 102*2022.862891 
102*2022.862891 102*2020.069638 
102*2020.069638 102*2017.276385 
102*2017.276385 102*2014.483132 
102*2014.483132 102*2011.689879 
102*2011.689879 102*2008.896626 
102*2008.896626 102*2006.103374 
102*2006.103374 102*2003.310121 
102*2003.310121 102*2000.516868 
102*2000.516868 102*1997.723615 
102*1997.723615 102*1994.930362 
102*1994.930362 102*1992.137109 
102*1992.137109 102*1989.343856 
102*1989.343856 102*1986.550603 
102*1986.550603 102*1983.757350 
102*1983.757350 102*1980.964097 
102*1980.964097 102*1978.170844 
102*1978.170844 102*1975.377591 
102*1975.377591 102*1972.584339 
102*1972.584339 102*1969.791086 
102*1969.791086 102*1966.997833 
102*1966.997833 102*1964.204580 
102*1964.204580 102*1961.411327 
102*1961.411327 102*1958.618074 
102*1958.618074 102*1955.824821 
102*1955.824821 102*1953.031568 
102*1953.031568 102*1950.238315 
102*1950.238315 102*1947.445062 
102*1947.445062 102*1944.651809 
102*1944.651809 102*1941.858556 
102*1941.858556 102*1939.065303 
102*2084.021202 102*2081.227949 
102*2081.227949 102*2078.434697 
102*2078.434697 102*2075.641444 
102*2075.641444 102*2072.848191 
102*2072.848191 102*2070.054938 
102*2070.054938 102*2067.261685 
102*2067.261685 102*2064.468432 
102*2064.468432 102*2061.675179 
102*2061.675179 102*2058.881926 
102*2058.881926 102*2056.088673 
102*2056.088673 102*2053.295420 
102*2053.295420 102*2050.502167 
102*2050.502167 102*2047.708914 
102*2047.708914 102*2044.915661 
102*2044.915661 102*2042.122409 
102*2042.122409 102*2039.329156 
102*2039.329156 102*2036.535903 
102*2036.535903 102*2033.742650 
102*2033.742650 102*2030.949397 
102*2030.949397 102*2028.156144 
102*2028.156144 102*2025.362891 
102*2025.362891 102*2022.569638 
102*2022.569638 102*2019.776385 
102*2019.776385 102*2016.983132 
102*2016.983132 102*2014.189879 
102*2014.189879 102*2011.396626 
102*2011.396626 102*2008.603374 
102*2008.603374 102*2005.810121 
102*2005.810121 102*2003.016868 
102*2003.016868 102*2000.223615 
102*2000.223615 102*1997.430362 
102*1997.430362 102*1994.637109 
102*1994.637109 102*1991.843856 
102*1991.843856 102*1989.050603 
102*1989.050603 102*1986.257350 
102*1986.257350 102*1983.464097 
102*1983.464097 102*1980.670844 
102*1980.670844 102*1977.877591 
102*1977.877591 102*1975.084339 
102*1975.084339 102*1972.291086 
102*1972.291086 102*1969.497833 
102*1969.497833 102*1966.704580 
102*1966.704580 102*1963.911327 
102*1963.911327 102*1961.118074 
102*1961.118074 102*1958.324821 
102*1958.324821 102*1955.531568 
102*1955.531568 102*1952.738315 
102*1952.738315 102*1949.945062 
102*1949.945062 102*1947.151809 
102*1947.151809 102*1944.358556 
102*1944.358556 102*1941.565303 
102*2084.021202 102*2081.227949 
102*2081.227949 102*2078.434697 
102*2078.434697 102*2075.641444 
102*2075.641444 102*2072.848191 
102*2072.848191 102*2070.054938 
102*2070.054938 102*2067.261685 
102*2067.261685 102*2064.468432 
102*2064.468432 102*2061.675179 
102*2061.675179 102*2058.881926 
102*2058.881926 102*2056.088673 
102*2056.088673 102*2053.295420 
102*2053.295420 102*2050.502167 
102*2050.502167 102*2047.708914 
102*2047.708914 102*2044.915661 
102*2044.915661 102*2042.122409 
102*2042.122409 102*2039.329156 
102*2039.329156 102*2036.535903 
102*2036.535903 102*2033.742650 
102*2033.742650 102*2030.949397 
102*2030.949397 102*2028.156144 
102*2028.156144 102*2025.362891 
102*2025.362891 102*2022.569638 
102*2022.569638 102*2019.776385 
102*2019.776385 102*2016.983132 
102*2016.983132 102*2014.189879 
102*2014.189879 102*2011.396626 
102*2011.396626 102*2008.603374 
102*2008.603374 102*2005.810121 
102*2005.810121 102*2003.016868 
102*2003.016868 102*2000.223615 
102*2000.223615 102*1997.430362 
102*1997.430362 102*1994.637109 
102*1994.637109 102*1991.843856 
102*1991.843856 102*1989.050603 
102*1989.050603 102*1986.257350 
102*1986.257350 102*1983.464097 
102*1983.464097 102*1980.670844 
102*1980.670844 102*1977.877591 
102*1977.877591 102*1975.084339 
102*1975.084339 102*1972.291086 
102*1972.291086 102*1969.497833 
102*1969.497833 102*1966.704580 
102*1966.704580 102*1963.911327 
102*1963.911327 102*1961.118074 
102*1961.118074 102*1958.324821 
102*1958.324821 102*1955.531568 
102*1955.531568 102*1952.738315 
102*1952.738315 102*1949.945062 
102*1949.945062 102*1947.151809 
102*1947.151809 102*1944.358556 
102*1944.358556 102*1941.565303 
102*2086.521202 102*2083.727949 
102*2083.727949 102*2080.934697 
102*2080.934697 102*2078.141444 
102*2078.141444 102*2075.348191 
102*2075.348191 102*2072.554938 
102*2072.554938 102*2069.761685 
102*2069.761685 102*2066.968432 
102*2066.968432 102*2064.175179 
102*2064.175179 102*2061.381926 
102*2061.381926 102*2058.588673 
102*2058.588673 102*2055.795420 
102*2055.795420 102*2053.002167 
102*2053.002167 102*2050.208914 
102*2050.208914 102*2047.415661 
102*2047.415661 102*2044.622409 
102*2044.622409 102*2041.829156 
102*2041.829156 102*2039.035903 
102*2039.035903 102*2036.242650 
102*2036.242650 102*2033.449397 
102*2033.449397 102*2030.656144 
102*2030.656144 102*2027.862891 
102*2027.862891 102*2025.069638 
102*2025.069638 102*2022.276385 
102*2022.276385 102*2019.483132 
102*2019.483132 102*2016.689879 
102*2016.689879 102*2013.896626 
102*2013.896626 102*2011.103374 
102*2011.103374 102*2008.310121 
102*2008.310121 102*2005.516868 
102*2005.516868 102*2002.723615 
102*2002.723615 102*1999.930362 
102*1999.930362 102*1997.137109 
102*1997.137109 102*1994.343856 
102*1994.343856 102*1991.550603 
102*1991.550603 102*1988.757350 
102*1988.757350 102*1985.964097 
102*1985.964097 102*1983.170844 
102*1983.170844 102*1980.377591 
102*1980.377591 102*1977.584339 
102*1977.584339 102*1974.791086 
102*1974.791086 102*1971.997833 
102*1971.997833 102*1969.204580 
102*1969.204580 102*1966.411327 
102*1966.411327 102*1963.618074 
102*1963.618074 102*1960.824821 
102*1960.824821 102*1958.031568 
102*1958.031568 102*1955.238315 
102*1955.238315 102*1952.445062 
102*1952.445062 102*1949.651809 
102*1949.651809 102*1946.858556 
102*1946.858556 102*1944.065303 
102*2086.521202 102*2083.727949 
102*2083.727949 102*2080.934697 
102*2080.934697 102*2078.141444 
102*2078.141444 102*2075.348191 
102*2075.348191 102*2072.554938 
102*2072.554938 102*2069.761685 
102*2069.761685 102*2066.968432 
102*2066.968432 102*2064.175179 
102*2064.175179 102*2061.381926 
102*2061.381926 102*2058.588673 
102*2058.588673 102*2055.795420 
102*2055.795420 102*2053.002167 
102*2053.002167 102*2050.208914 
102*2050.208914 102*2047.415661 
102*2047.415661 102*2044.622409 
102*2044.622409 102*2041.829156 
102*2041.829156 102*2039.035903 
102*2039.035903 102*2036.242650 
102*2036.242650 102*2033.449397 
102*2033.449397 102*2030.656144 
102*2030.656144 102*2027.862891 
102*2027.862891 102*2025.069638 
102*2025.069638 102*2022.276385 
102*2022.276385 102*2019.483132 
102*2019.483132 102*2016.689879 
102*2016.689879 102*2013.896626 
102*2013.896626 102*2011.103374 
102*2011.103374 102*2008.310121 
102*2008.310121 102*2005.516868 
102*2005.516868 102*2002.723615 
102*2002.723615 102*1999.930362 
102*1999.930362 102*1997.137109 
102*1997.137109 102*1994.343856 
102*1994.343856 102*1991.550603 
102*1991.550603 102*1988.757350 
102*1988.757350 102*1985.964097 
102*1985.964097 102*1983.170844 
102*1983.170844 102*1980.377591 
102*1980.377591 102*1977.584339 
102*1977.584339 102*1974.791086 
102*1974.791086 102*1971.997833 
102*1971.997833 102*1969.204580 
102*1969.204580 102*1966.411327 
102*1966.411327 102*1963.618074 
102*1963.618074 102*1960.824821 
102*1960.824821 102*1958.031568 
102*1958.031568 102*1955.238315 
102*1955.238315 102*1952.445062 
102*1952.445062 102*1949.651809 
102*1949.651809 102*1946.858556 
102*1946.858556 102*1944.065303 
102*2089.021202 102*2086.227949 
102*2086.227949 102*2083.434697 
102*2083.434697 102*2080.641444 
102*2080.641444 102*2077.848191 
102*2077.848191 102*2075.054938 
102*2075.054938 102*2072.261685 
102*2072.261685 102*2069.468432 
102*2069.468432 102*2066.675179 
102*2066.675179 102*2063.881926 
102*2063.881926 102*2061.088673 
102*2061.088673 102*2058.295420 
102*2058.295420 102*2055.502167 
102*2055.502167 102*2052.708914 
102*2052.708914 102*2049.915661 
102*2049.915661 102*2047.122409 
102*2047.122409 102*2044.329156 
102*2044.329156 102*2041.535903 
102*2041.535903 102*2038.742650 
102*2038.742650 102*2035.949397 
102*2035.949397 102*2033.156144 
102*2033.156144 102*2030.362891 
102*2030.362891 102*2027.569638 
102*2027.569638 102*2024.776385 
102*2024.776385 102*2021.983132 
102*2021.983132 102*2019.189879 
102*2019.189879 102*2016.396626 
102*2016.396626 102*2013.603374 
102*2013.603374 102*2010.810121 
102*2010.810121 102*2008.016868 
102*2008.016868 102*2005.223615 
102*2005.223615 102*2002.430362 
102*2002.430362 102*1999.637109 
102*1999.637109 102*1996.843856 
102*1996.843856 102*1994.050603 
102*1994.050603 102*1991.257350 
102*1991.257350 102*1988.464097 
102*1988.464097 102*1985.670844 
102*1985.670844 102*1982.877591 
102*1982.877591 102*1980.084339 
102*1980.084339 102*1977.291086 
102*1977.291086 102*1974.497833 
102*1974.497833 102*1971.704580 
102*1971.704580 102*1968.911327 
102*1968.911327 102*1966.118074 
102*1966.118074 102*1963.324821 
102*1963.324821 102*1960.531568 
102*1960.531568 102*1957.738315 
102*1957.738315 102*1954.945062 
102*1954.945062 102*1952.151809 
102*1952.151809 102*1949.358556 
102*1949.358556 102*1946.565303 
102*2089.021202 102*2086.227949 
102*2086.227949 102*2083.434697 
102*2083.434697 102*2080.641444 
102*2080.641444 102*2077.848191 
102*2077.848191 102*2075.054938 
102*2075.054938 102*2072.261685 
102*2072.261685 102*2069.468432 
102*2069.468432 102*2066.675179 
102*2066.675179 102*2063.881926 
102*2063.881926 102*2061.088673 
102*2061.088673 102*2058.295420 
102*2058.295420 102*2055.502167 
102*2055.502167 102*2052.708914 
102*2052.708914 102*2049.915661 
102*2049.915661 102*2047.122409 
102*2047.122409 102*2044.329156 
102*2044.329156 102*2041.535903 
102*2041.535903 102*2038.742650 
102*2038.742650 102*2035.949397 
102*2035.949397 102*2033.156144 
102*2033.156144 102*2030.362891 
102*2030.362891 102*2027.569638 
102*2027.569638 102*2024.776385 
102*2024.776385 102*2021.983132 
102*2021.983132 102*2019.189879 
102*2019.189879 102*2016.396626 
102*2016.396626 102*2013.603374 
102*2013.603374 102*2010.810121 
102*2010.810121 102*2008.016868 
102*2008.016868 102*2005.223615 
102*2005.223615 102*2002.430362 
102*2002.430362 102*1999.637109 
102*1999.637109 102*1996.843856 
102*1996.843856 102*1994.050603 
102*1994.050603 102*1991.257350 
102*1991.257350 102*1988.464097 
102*1988.464097 102*1985.670844 
102*1985.670844 102*1982.877591 
102*1982.877591 102*1980.084339 
102*1980.084339 102*1977.291086 
102*1977.291086 102*1974.497833 
102*1974.497833 102*1971.704580 
102*1971.704580 102*1968.911327 
102*1968.911327 102*1966.118074 
102*1966.118074 102*1963.324821 
102*1963.324821 102*1960.531568 
102*1960.531568 102*1957.738315 
102*1957.738315 102*1954.945062 
102*1954.945062 102*1952.151809 
102*1952.151809 102*1949.358556 
102*1949.358556 102*1946.565303 
102*2091.521202 102*2088.727949 
102*2088.727949 102*2085.934697 
102*2085.934697 102*2083.141444 
102*2083.141444 102*2080.348191 
102*2080.348191 102*2077.554938 
102*2077.554938 102*2074.761685 
102*2074.761685 102*2071.968432 
102*2071.968432 102*2069.175179 
102*2069.175179 102*2066.381926 
102*2066.381926 102*2063.588673 
102*2063.588673 102*2060.795420 
102*2060.795420 102*2058.002167 
102*2058.002167 102*2055.208914 
102*2055.208914 102*2052.415661 
102*2052.415661 102*2049.622409 
102*2049.622409 102*2046.829156 
102*2046.829156 102*2044.035903 
102*2044.035903 102*2041.242650 
102*2041.242650 102*2038.449397 
102*2038.449397 102*2035.656144 
102*2035.656144 102*2032.862891 
102*2032.862891 102*2030.069638 
102*2030.069638 102*2027.276385 
102*2027.276385 102*2024.483132 
102*2024.483132 102*2021.689879 
102*2021.689879 102*2018.896626 
102*2018.896626 102*2016.103374 
102*2016.103374 102*2013.310121 
102*2013.310121 102*2010.516868 
102*2010.516868 102*2007.723615 
102*2007.723615 102*2004.930362 
102*2004.930362 102*2002.137109 
102*2002.137109 102*1999.343856 
102*1999.343856 102*1996.550603 
102*1996.550603 102*1993.757350 
102*1993.757350 102*1990.964097 
102*1990.964097 102*1988.170844 
102*1988.170844 102*1985.377591 
102*1985.377591 102*1982.584339 
102*1982.584339 102*1979.791086 
102*1979.791086 102*1976.997833 
102*1976.997833 102*1974.204580 
102*1974.204580 102*1971.411327 
102*1971.411327 102*1968.618074 
102*1968.618074 102*1965.824821 
102*1965.824821 102*1963.031568 
102*1963.031568 102*1960.238315 
102*1960.238315 102*1957.445062 
102*1957.445062 102*1954.651809 
102*1954.651809 102*1951.858556 
102*1951.858556 102*1949.065303 
102*2091.521202 102*2088.727949 
102*2088.727949 102*2085.934697 
102*2085.934697 102*2083.141444 
102*2083.141444 102*2080.348191 
102*2080.348191 102*2077.554938 
102*2077.554938 102*2074.761685 
102*2074.761685 102*2071.968432 
102*2071.968432 102*2069.175179 
102*2069.175179 102*2066.381926 
102*2066.381926 102*2063.588673 
102*2063.588673 102*2060.795420 
102*2060.795420 102*2058.002167 
102*2058.002167 102*2055.208914 
102*2055.208914 102*2052.415661 
102*2052.415661 102*2049.622409 
102*2049.622409 102*2046.829156 
102*2046.829156 102*2044.035903 
102*2044.035903 102*2041.242650 
102*2041.242650 102*2038.449397 
102*2038.449397 102*2035.656144 
102*2035.656144 102*2032.862891 
102*2032.862891 102*2030.069638 
102*2030.069638 102*2027.276385 
102*2027.276385 102*2024.483132 
102*2024.483132 102*2021.689879 
102*2021.689879 102*2018.896626 
102*2018.896626 102*2016.103374 
102*2016.103374 102*2013.310121 
102*2013.310121 102*2010.516868 
102*2010.516868 102*2007.723615 
102*2007.723615 102*2004.930362 
102*2004.930362 102*2002.137109 
102*2002.137109 102*1999.343856 
102*1999.343856 102*1996.550603 
102*1996.550603 102*1993.757350 
102*1993.757350 102*1990.964097 
102*1990.964097 102*1988.170844 
102*1988.170844 102*1985.377591 
102*1985.377591 102*1982.584339 
102*1982.584339 102*1979.791086 
102*1979.791086 102*1976.997833 
102*1976.997833 102*1974.204580 
102*1974.204580 102*1971.411327 
102*1971.411327 102*1968.618074 
102*1968.618074 102*1965.824821 
102*1965.824821 102*1963.031568 
102*1963.031568 102*1960.238315 
102*1960.238315 102*1957.445062 
102*1957.445062 102*1954.651809 
102*1954.651809 102*1951.858556 
102*1951.858556 102*1949.065303 
102*2094.021202 102*2091.227949 
102*2091.227949 102*2088.434697 
102*2088.434697 102*2085.641444 
102*2085.641444 102*2082.848191 
102*2082.848191 102*2080.054938 
102*2080.054938 102*2077.261685 
102*2077.261685 102*2074.468432 
102*2074.468432 102*2071.675179 
102*2071.675179 102*2068.881926 
102*2068.881926 102*2066.088673 
102*2066.088673 102*2063.295420 
102*2063.295420 102*2060.502167 
102*2060.502167 102*2057.708914 
102*2057.708914 102*2054.915661 
102*2054.915661 102*2052.122409 
102*2052.122409 102*2049.329156 
102*2049.329156 102*2046.535903 
102*2046.535903 102*2043.742650 
102*2043.742650 102*2040.949397 
102*2040.949397 102*2038.156144 
102*2038.156144 102*2035.362891 
102*2035.362891 102*2032.569638 
102*2032.569638 102*2029.776385 
102*2029.776385 102*2026.983132 
102*2026.983132 102*2024.189879 
102*2024.189879 102*2021.396626 
102*2021.396626 102*2018.603374 
102*2018.603374 102*2015.810121 
102*2015.810121 102*2013.016868 
102*2013.016868 102*2010.223615 
102*2010.223615 102*2007.430362 
102*2007.430362 102*2004.637109 
102*2004.637109 102*2001.843856 
102*2001.843856 102*1999.050603 
102*1999.050603 102*1996.257350 
102*1996.257350 102*1993.464097 
102*1993.464097 102*1990.670844 
102*1990.670844 102*1987.877591 
102*1987.877591 102*1985.084339 
102*1985.084339 102*1982.291086 
102*1982.291086 102*1979.497833 
102*1979.497833 102*1976.704580 
102*1976.704580 102*1973.911327 
102*1973.911327 102*1971.118074 
102*1971.118074 102*1968.324821 
102*1968.324821 102*1965.531568 
102*1965.531568 102*1962.738315 
102*1962.738315 102*1959.945062 
102*1959.945062 102*1957.151809 
102*1957.151809 102*1954.358556 
102*1954.358556 102*1951.565303 
102*2094.021202 102*2091.227949 
102*2091.227949 102*2088.434697 
102*2088.434697 102*2085.641444 
102*2085.641444 102*2082.848191 
102*2082.848191 102*2080.054938 
102*2080.054938 102*2077.261685 
102*2077.261685 102*2074.468432 
102*2074.468432 102*2071.675179 
102*2071.675179 102*2068.881926 
102*2068.881926 102*2066.088673 
102*2066.088673 102*2063.295420 
102*2063.295420 102*2060.502167 
102*2060.502167 102*2057.708914 
102*2057.708914 102*2054.915661 
102*2054.915661 102*2052.122409 
102*2052.122409 102*2049.329156 
102*2049.329156 102*2046.535903 
102*2046.535903 102*2043.742650 
102*2043.742650 102*2040.949397 
102*2040.949397 102*2038.156144 
102*2038.156144 102*2035.362891 
102*2035.362891 102*2032.569638 
102*2032.569638 102*2029.776385 
102*2029.776385 102*2026.983132 
102*2026.983132 102*2024.189879 
102*2024.189879 102*2021.396626 
102*2021.396626 102*2018.603374 
102*2018.603374 102*2015.810121 
102*2015.810121 102*2013.016868 
102*2013.016868 102*2010.223615 
102*2010.223615 102*2007.430362 
102*2007.430362 102*2004.637109 
102*2004.637109 102*2001.843856 
102*2001.843856 102*1999.050603 
102*1999.050603 102*1996.257350 
102*1996.257350 102*1993.464097 
102*1993.464097 102*1990.670844 
102*1990.670844 102*1987.877591 
102*1987.877591 102*1985.084339 
102*1985.084339 102*1982.291086 
102*1982.291086 102*1979.497833 
102*1979.497833 102*1976.704580 
102*1976.704580 102*1973.911327 
102*1973.911327 102*1971.118074 
102*1971.118074 102*1968.324821 
102*1968.324821 102*1965.531568 
102*1965.531568 102*1962.738315 
102*1962.738315 102*1959.945062 
102*1959.945062 102*1957.151809 
102*1957.151809 102*1954.358556 
102*1954.358556 102*1951.565303 
102*2096.521202 102*2093.727949 
102*2093.727949 102*2090.934697 
102*2090.934697 102*2088.141444 
102*2088.141444 102*2085.348191 
102*2085.348191 102*2082.554938 
102*2082.554938 102*2079.761685 
102*2079.761685 102*2076.968432 
102*2076.968432 102*2074.175179 
102*2074.175179 102*2071.381926 
102*2071.381926 102*2068.588673 
102*2068.588673 102*2065.795420 
102*2065.795420 102*2063.002167 
102*2063.002167 102*2060.208914 
102*2060.208914 102*2057.415661 
102*2057.415661 102*2054.622409 
102*2054.622409 102*2051.829156 
102*2051.829156 102*2049.035903 
102*2049.035903 102*2046.242650 
102*2046.242650 102*2043.449397 
102*2043.449397 102*2040.656144 
102*2040.656144 102*2037.862891 
102*2037.862891 102*2035.069638 
102*2035.069638 102*2032.276385 
102*2032.276385 102*2029.483132 
102*2029.483132 102*2026.689879 
102*2026.689879 102*2023.896626 
102*2023.896626 102*2021.103374 
102*2021.103374 102*2018.310121 
102*2018.310121 102*2015.516868 
102*2015.516868 102*2012.723615 
102*2012.723615 102*2009.930362 
102*2009.930362 102*2007.137109 
102*2007.137109 102*2004.343856 
102*2004.343856 102*2001.550603 
102*2001.550603 102*1998.757350 
102*1998.757350 102*1995.964097 
102*1995.964097 102*1993.170844 
102*1993.170844 102*1990.377591 
102*1990.377591 102*1987.584339 
102*1987.584339 102*1984.791086 
102*1984.791086 102*1981.997833 