ZCORN
102*2014.338020 102*2013.796962 
102*2013.796962 102*2013.255905 
102*2013.255905 102*2012.714848 
102*2012.714848 102*2012.173790 
102*2012.173790 102*2011.632733 
102*2011.632733 102*2011.091676 
102*2011.091676 102*2010.550618 
102*2010.550618 102*2010.009561 
102*2010.009561 102*2009.468504 
102*2009.468504 102*2008.927446 
102*2008.927446 102*2008.386389 
102*2008.386389 102*2007.845332 
102*2007.845332 102*2007.304274 
102*2007.304274 102*2006.763217 
102*2006.763217 102*2006.222159 
102*2006.222159 102*2005.681102 
102*2005.681102 102*2005.140045 
102*2005.140045 102*2004.598987 
102*2004.598987 102*2004.057930 
102*2004.057930 102*2003.516873 
102*2003.516873 102*2002.975815 
102*2002.975815 102*2002.434758 
102*2002.434758 102*2001.893701 
102*2001.893701 102*2001.352643 
102*2001.352643 102*2000.811586 
102*2000.811586 102*2000.270529 
102*2000.270529 102*1999.729471 
102*1999.729471 102*1999.188414 
102*1999.188414 102*1998.647357 
102*1998.647357 102*1998.106299 
102*1998.106299 102*1997.565242 
102*1997.565242 102*1997.024185 
102*1997.024185 102*1996.483127 
102*1996.483127 102*1995.942070 
102*1995.942070 102*1995.401013 
102*1995.401013 102*1994.859955 
102*1994.859955 102*1994.318898 
102*1994.318898 102*1993.777841 
102*1993.777841 102*1993.236783 
102*1993.236783 102*1992.695726 
102*1992.695726 102*1992.154668 
102*1992.154668 102*1991.613611 
102*1991.613611 102*1991.072554 
102*1991.072554 102*1990.531496 
102*1990.531496 102*1989.990439 
102*1989.990439 102*1989.449382 
102*1989.449382 102*1988.908324 
102*1988.908324 102*1988.367267 
102*1988.367267 102*1987.826210 
102*1987.826210 102*1987.285152 
102*1987.285152 102*1986.744095 
102*2016.838020 102*2016.296962 
102*2016.296962 102*2015.755905 
102*2015.755905 102*2015.214848 
102*2015.214848 102*2014.673790 
102*2014.673790 102*2014.132733 
102*2014.132733 102*2013.591676 
102*2013.591676 102*2013.050618 
102*2013.050618 102*2012.509561 
102*2012.509561 102*2011.968504 
102*2011.968504 102*2011.427446 
102*2011.427446 102*2010.886389 
102*2010.886389 102*2010.345332 
102*2010.345332 102*2009.804274 
102*2009.804274 102*2009.263217 
102*2009.263217 102*2008.722159 
102*2008.722159 102*2008.181102 
102*2008.181102 102*2007.640045 
102*2007.640045 102*2007.098987 
102*2007.098987 102*2006.557930 
102*2006.557930 102*2006.016873 
102*2006.016873 102*2005.475815 
102*2005.475815 102*2004.934758 
102*2004.934758 102*2004.393701 
102*2004.393701 102*2003.852643 
102*2003.852643 102*2003.311586 
102*2003.311586 102*2002.770529 
102*2002.770529 102*2002.229471 
102*2002.229471 102*2001.688414 
102*2001.688414 102*2001.147357 
102*2001.147357 102*2000.606299 
102*2000.606299 102*2000.065242 
102*2000.065242 102*1999.524185 
102*1999.524185 102*1998.983127 
102*1998.983127 102*1998.442070 
102*1998.442070 102*1997.901013 
102*1997.901013 102*1997.359955 
102*1997.359955 102*1996.818898 
102*1996.818898 102*1996.277841 
102*1996.277841 102*1995.736783 
102*1995.736783 102*1995.195726 
102*1995.195726 102*1994.654668 
102*1994.654668 102*1994.113611 
102*1994.113611 102*1993.572554 
102*1993.572554 102*1993.031496 
102*1993.031496 102*1992.490439 
102*1992.490439 102*1991.949382 
102*1991.949382 102*1991.408324 
102*1991.408324 102*1990.867267 
102*1990.867267 102*1990.326210 
102*1990.326210 102*1989.785152 
102*1989.785152 102*1989.244095 
102*2016.838020 102*2016.296962 
102*2016.296962 102*2015.755905 
102*2015.755905 102*2015.214848 
102*2015.214848 102*2014.673790 
102*2014.673790 102*2014.132733 
102*2014.132733 102*2013.591676 
102*2013.591676 102*2013.050618 
102*2013.050618 102*2012.509561 
102*2012.509561 102*2011.968504 
102*2011.968504 102*2011.427446 
102*2011.427446 102*2010.886389 
102*2010.886389 102*2010.345332 
102*2010.345332 102*2009.804274 
102*2009.804274 102*2009.263217 
102*2009.263217 102*2008.722159 
102*2008.722159 102*2008.181102 
102*2008.181102 102*2007.640045 
102*2007.640045 102*2007.098987 
102*2007.098987 102*2006.557930 
102*2006.557930 102*2006.016873 
102*2006.016873 102*2005.475815 
102*2005.475815 102*2004.934758 
102*2004.934758 102*2004.393701 
102*2004.393701 102*2003.852643 
102*2003.852643 102*2003.311586 
102*2003.311586 102*2002.770529 
102*2002.770529 102*2002.229471 
102*2002.229471 102*2001.688414 
102*2001.688414 102*2001.147357 
102*2001.147357 102*2000.606299 
102*2000.606299 102*2000.065242 
102*2000.065242 102*1999.524185 
102*1999.524185 102*1998.983127 
102*1998.983127 102*1998.442070 
102*1998.442070 102*1997.901013 
102*1997.901013 102*1997.359955 
102*1997.359955 102*1996.818898 
102*1996.818898 102*1996.277841 
102*1996.277841 102*1995.736783 
102*1995.736783 102*1995.195726 
102*1995.195726 102*1994.654668 
102*1994.654668 102*1994.113611 
102*1994.113611 102*1993.572554 
102*1993.572554 102*1993.031496 
102*1993.031496 102*1992.490439 
102*1992.490439 102*1991.949382 
102*1991.949382 102*1991.408324 
102*1991.408324 102*1990.867267 
102*1990.867267 102*1990.326210 
102*1990.326210 102*1989.785152 
102*1989.785152 102*1989.244095 
102*2019.338020 102*2018.796962 
102*2018.796962 102*2018.255905 
102*2018.255905 102*2017.714848 
102*2017.714848 102*2017.173790 
102*2017.173790 102*2016.632733 
102*2016.632733 102*2016.091676 
102*2016.091676 102*2015.550618 
102*2015.550618 102*2015.009561 
102*2015.009561 102*2014.468504 
102*2014.468504 102*2013.927446 
102*2013.927446 102*2013.386389 
102*2013.386389 102*2012.845332 
102*2012.845332 102*2012.304274 
102*2012.304274 102*2011.763217 
102*2011.763217 102*2011.222159 
102*2011.222159 102*2010.681102 
102*2010.681102 102*2010.140045 
102*2010.140045 102*2009.598987 
102*2009.598987 102*2009.057930 
102*2009.057930 102*2008.516873 
102*2008.516873 102*2007.975815 
102*2007.975815 102*2007.434758 
102*2007.434758 102*2006.893701 
102*2006.893701 102*2006.352643 
102*2006.352643 102*2005.811586 
102*2005.811586 102*2005.270529 
102*2005.270529 102*2004.729471 
102*2004.729471 102*2004.188414 
102*2004.188414 102*2003.647357 
102*2003.647357 102*2003.106299 
102*2003.106299 102*2002.565242 
102*2002.565242 102*2002.024185 
102*2002.024185 102*2001.483127 
102*2001.483127 102*2000.942070 
102*2000.942070 102*2000.401013 
102*2000.401013 102*1999.859955 
102*1999.859955 102*1999.318898 
102*1999.318898 102*1998.777841 
102*1998.777841 102*1998.236783 
102*1998.236783 102*1997.695726 
102*1997.695726 102*1997.154668 
102*1997.154668 102*1996.613611 
102*1996.613611 102*1996.072554 
102*1996.072554 102*1995.531496 
102*1995.531496 102*1994.990439 
102*1994.990439 102*1994.449382 
102*1994.449382 102*1993.908324 
102*1993.908324 102*1993.367267 
102*1993.367267 102*1992.826210 
102*1992.826210 102*1992.285152 
102*1992.285152 102*1991.744095 
102*2019.338020 102*2018.796962 
102*2018.796962 102*2018.255905 
102*2018.255905 102*2017.714848 
102*2017.714848 102*2017.173790 
102*2017.173790 102*2016.632733 
102*2016.632733 102*2016.091676 
102*2016.091676 102*2015.550618 
102*2015.550618 102*2015.009561 
102*2015.009561 102*2014.468504 
102*2014.468504 102*2013.927446 
102*2013.927446 102*2013.386389 
102*2013.386389 102*2012.845332 
102*2012.845332 102*2012.304274 
102*2012.304274 102*2011.763217 
102*2011.763217 102*2011.222159 
102*2011.222159 102*2010.681102 
102*2010.681102 102*2010.140045 
102*2010.140045 102*2009.598987 
102*2009.598987 102*2009.057930 
102*2009.057930 102*2008.516873 
102*2008.516873 102*2007.975815 
102*2007.975815 102*2007.434758 
102*2007.434758 102*2006.893701 
102*2006.893701 102*2006.352643 
102*2006.352643 102*2005.811586 
102*2005.811586 102*2005.270529 
102*2005.270529 102*2004.729471 
102*2004.729471 102*2004.188414 
102*2004.188414 102*2003.647357 
102*2003.647357 102*2003.106299 
102*2003.106299 102*2002.565242 
102*2002.565242 102*2002.024185 
102*2002.024185 102*2001.483127 
102*2001.483127 102*2000.942070 
102*2000.942070 102*2000.401013 
102*2000.401013 102*1999.859955 
102*1999.859955 102*1999.318898 
102*1999.318898 102*1998.777841 
102*1998.777841 102*1998.236783 
102*1998.236783 102*1997.695726 
102*1997.695726 102*1997.154668 
102*1997.154668 102*1996.613611 
102*1996.613611 102*1996.072554 
102*1996.072554 102*1995.531496 
102*1995.531496 102*1994.990439 
102*1994.990439 102*1994.449382 
102*1994.449382 102*1993.908324 
102*1993.908324 102*1993.367267 
102*1993.367267 102*1992.826210 
102*1992.826210 102*1992.285152 
102*1992.285152 102*1991.744095 
102*2021.838020 102*2021.296962 
102*2021.296962 102*2020.755905 
102*2020.755905 102*2020.214848 
102*2020.214848 102*2019.673790 
102*2019.673790 102*2019.132733 
102*2019.132733 102*2018.591676 
102*2018.591676 102*2018.050618 
102*2018.050618 102*2017.509561 
102*2017.509561 102*2016.968504 
102*2016.968504 102*2016.427446 
102*2016.427446 102*2015.886389 
102*2015.886389 102*2015.345332 
102*2015.345332 102*2014.804274 
102*2014.804274 102*2014.263217 
102*2014.263217 102*2013.722159 
102*2013.722159 102*2013.181102 
102*2013.181102 102*2012.640045 
102*2012.640045 102*2012.098987 
102*2012.098987 102*2011.557930 
102*2011.557930 102*2011.016873 
102*2011.016873 102*2010.475815 
102*2010.475815 102*2009.934758 
102*2009.934758 102*2009.393701 
102*2009.393701 102*2008.852643 
102*2008.852643 102*2008.311586 
102*2008.311586 102*2007.770529 
102*2007.770529 102*2007.229471 
102*2007.229471 102*2006.688414 
102*2006.688414 102*2006.147357 
102*2006.147357 102*2005.606299 
102*2005.606299 102*2005.065242 
102*2005.065242 102*2004.524185 
102*2004.524185 102*2003.983127 
102*2003.983127 102*2003.442070 
102*2003.442070 102*2002.901013 
102*2002.901013 102*2002.359955 
102*2002.359955 102*2001.818898 
102*2001.818898 102*2001.277841 
102*2001.277841 102*2000.736783 
102*2000.736783 102*2000.195726 
102*2000.195726 102*1999.654668 
102*1999.654668 102*1999.113611 
102*1999.113611 102*1998.572554 
102*1998.572554 102*1998.031496 
102*1998.031496 102*1997.490439 
102*1997.490439 102*1996.949382 
102*1996.949382 102*1996.408324 
102*1996.408324 102*1995.867267 
102*1995.867267 102*1995.326210 
102*1995.326210 102*1994.785152 
102*1994.785152 102*1994.244095 
102*2021.838020 102*2021.296962 
102*2021.296962 102*2020.755905 
102*2020.755905 102*2020.214848 
102*2020.214848 102*2019.673790 
102*2019.673790 102*2019.132733 
102*2019.132733 102*2018.591676 
102*2018.591676 102*2018.050618 
102*2018.050618 102*2017.509561 
102*2017.509561 102*2016.968504 
102*2016.968504 102*2016.427446 
102*2016.427446 102*2015.886389 
102*2015.886389 102*2015.345332 
102*2015.345332 102*2014.804274 
102*2014.804274 102*2014.263217 
102*2014.263217 102*2013.722159 
102*2013.722159 102*2013.181102 
102*2013.181102 102*2012.640045 
102*2012.640045 102*2012.098987 
102*2012.098987 102*2011.557930 
102*2011.557930 102*2011.016873 
102*2011.016873 102*2010.475815 
102*2010.475815 102*2009.934758 
102*2009.934758 102*2009.393701 
102*2009.393701 102*2008.852643 
102*2008.852643 102*2008.311586 
102*2008.311586 102*2007.770529 
102*2007.770529 102*2007.229471 
102*2007.229471 102*2006.688414 
102*2006.688414 102*2006.147357 
102*2006.147357 102*2005.606299 
102*2005.606299 102*2005.065242 
102*2005.065242 102*2004.524185 
102*2004.524185 102*2003.983127 
102*2003.983127 102*2003.442070 
102*2003.442070 102*2002.901013 
102*2002.901013 102*2002.359955 
102*2002.359955 102*2001.818898 
102*2001.818898 102*2001.277841 
102*2001.277841 102*2000.736783 
102*2000.736783 102*2000.195726 
102*2000.195726 102*1999.654668 
102*1999.654668 102*1999.113611 
102*1999.113611 102*1998.572554 
102*1998.572554 102*1998.031496 
102*1998.031496 102*1997.490439 
102*1997.490439 102*1996.949382 
102*1996.949382 102*1996.408324 
102*1996.408324 102*1995.867267 
102*1995.867267 102*1995.326210 
102*1995.326210 102*1994.785152 
102*1994.785152 102*1994.244095 
102*2024.338020 102*2023.796962 
102*2023.796962 102*2023.255905 
102*2023.255905 102*2022.714848 
102*2022.714848 102*2022.173790 
102*2022.173790 102*2021.632733 
102*2021.632733 102*2021.091676 
102*2021.091676 102*2020.550618 
102*2020.550618 102*2020.009561 
102*2020.009561 102*2019.468504 
102*2019.468504 102*2018.927446 
102*2018.927446 102*2018.386389 
102*2018.386389 102*2017.845332 
102*2017.845332 102*2017.304274 
102*2017.304274 102*2016.763217 
102*2016.763217 102*2016.222159 
102*2016.222159 102*2015.681102 
102*2015.681102 102*2015.140045 
102*2015.140045 102*2014.598987 
102*2014.598987 102*2014.057930 
102*2014.057930 102*2013.516873 
102*2013.516873 102*2012.975815 
102*2012.975815 102*2012.434758 
102*2012.434758 102*2011.893701 
102*2011.893701 102*2011.352643 
102*2011.352643 102*2010.811586 
102*2010.811586 102*2010.270529 
102*2010.270529 102*2009.729471 
102*2009.729471 102*2009.188414 
102*2009.188414 102*2008.647357 
102*2008.647357 102*2008.106299 
102*2008.106299 102*2007.565242 
102*2007.565242 102*2007.024185 
102*2007.024185 102*2006.483127 
102*2006.483127 102*2005.942070 
102*2005.942070 102*2005.401013 
102*2005.401013 102*2004.859955 
102*2004.859955 102*2004.318898 
102*2004.318898 102*2003.777841 
102*2003.777841 102*2003.236783 
102*2003.236783 102*2002.695726 
102*2002.695726 102*2002.154668 
102*2002.154668 102*2001.613611 
102*2001.613611 102*2001.072554 
102*2001.072554 102*2000.531496 
102*2000.531496 102*1999.990439 
102*1999.990439 102*1999.449382 
102*1999.449382 102*1998.908324 
102*1998.908324 102*1998.367267 
102*1998.367267 102*1997.826210 
102*1997.826210 102*1997.285152 
102*1997.285152 102*1996.744095 
102*2024.338020 102*2023.796962 
102*2023.796962 102*2023.255905 
102*2023.255905 102*2022.714848 
102*2022.714848 102*2022.173790 
102*2022.173790 102*2021.632733 
102*2021.632733 102*2021.091676 
102*2021.091676 102*2020.550618 
102*2020.550618 102*2020.009561 
102*2020.009561 102*2019.468504 
102*2019.468504 102*2018.927446 
102*2018.927446 102*2018.386389 
102*2018.386389 102*2017.845332 
102*2017.845332 102*2017.304274 
102*2017.304274 102*2016.763217 
102*2016.763217 102*2016.222159 
102*2016.222159 102*2015.681102 
102*2015.681102 102*2015.140045 
102*2015.140045 102*2014.598987 
102*2014.598987 102*2014.057930 
102*2014.057930 102*2013.516873 
102*2013.516873 102*2012.975815 
102*2012.975815 102*2012.434758 
102*2012.434758 102*2011.893701 
102*2011.893701 102*2011.352643 
102*2011.352643 102*2010.811586 
102*2010.811586 102*2010.270529 
102*2010.270529 102*2009.729471 
102*2009.729471 102*2009.188414 
102*2009.188414 102*2008.647357 
102*2008.647357 102*2008.106299 
102*2008.106299 102*2007.565242 
102*2007.565242 102*2007.024185 
102*2007.024185 102*2006.483127 
102*2006.483127 102*2005.942070 
102*2005.942070 102*2005.401013 
102*2005.401013 102*2004.859955 
102*2004.859955 102*2004.318898 
102*2004.318898 102*2003.777841 
102*2003.777841 102*2003.236783 
102*2003.236783 102*2002.695726 
102*2002.695726 102*2002.154668 
102*2002.154668 102*2001.613611 
102*2001.613611 102*2001.072554 
102*2001.072554 102*2000.531496 
102*2000.531496 102*1999.990439 
102*1999.990439 102*1999.449382 
102*1999.449382 102*1998.908324 
102*1998.908324 102*1998.367267 
102*1998.367267 102*1997.826210 
102*1997.826210 102*1997.285152 
102*1997.285152 102*1996.744095 
102*2026.838020 102*2026.296962 
102*2026.296962 102*2025.755905 
102*2025.755905 102*2025.214848 
102*2025.214848 102*2024.673790 
102*2024.673790 102*2024.132733 
102*2024.132733 102*2023.591676 
102*2023.591676 102*2023.050618 
102*2023.050618 102*2022.509561 
102*2022.509561 102*2021.968504 
102*2021.968504 102*2021.427446 
102*2021.427446 102*2020.886389 
102*2020.886389 102*2020.345332 
102*2020.345332 102*2019.804274 
102*2019.804274 102*2019.263217 
102*2019.263217 102*2018.722159 
102*2018.722159 102*2018.181102 
102*2018.181102 102*2017.640045 
102*2017.640045 102*2017.098987 
102*2017.098987 102*2016.557930 
102*2016.557930 102*2016.016873 
102*2016.016873 102*2015.475815 
102*2015.475815 102*2014.934758 
102*2014.934758 102*2014.393701 
102*2014.393701 102*2013.852643 
102*2013.852643 102*2013.311586 
102*2013.311586 102*2012.770529 
102*2012.770529 102*2012.229471 
102*2012.229471 102*2011.688414 
102*2011.688414 102*2011.147357 
102*2011.147357 102*2010.606299 
102*2010.606299 102*2010.065242 
102*2010.065242 102*2009.524185 
102*2009.524185 102*2008.983127 
102*2008.983127 102*2008.442070 
102*2008.442070 102*2007.901013 
102*2007.901013 102*2007.359955 
102*2007.359955 102*2006.818898 
102*2006.818898 102*2006.277841 
102*2006.277841 102*2005.736783 
102*2005.736783 102*2005.195726 
102*2005.195726 102*2004.654668 
102*2004.654668 102*2004.113611 
102*2004.113611 102*2003.572554 
102*2003.572554 102*2003.031496 
102*2003.031496 102*2002.490439 
102*2002.490439 102*2001.949382 
102*2001.949382 102*2001.408324 
102*2001.408324 102*2000.867267 
102*2000.867267 102*2000.326210 
102*2000.326210 102*1999.785152 
102*1999.785152 102*1999.244095 
102*2026.838020 102*2026.296962 
102*2026.296962 102*2025.755905 
102*2025.755905 102*2025.214848 
102*2025.214848 102*2024.673790 
102*2024.673790 102*2024.132733 
102*2024.132733 102*2023.591676 
102*2023.591676 102*2023.050618 
102*2023.050618 102*2022.509561 
102*2022.509561 102*2021.968504 
102*2021.968504 102*2021.427446 
102*2021.427446 102*2020.886389 
102*2020.886389 102*2020.345332 
102*2020.345332 102*2019.804274 
102*2019.804274 102*2019.263217 
102*2019.263217 102*2018.722159 
102*2018.722159 102*2018.181102 
102*2018.181102 102*2017.640045 
102*2017.640045 102*2017.098987 
102*2017.098987 102*2016.557930 
102*2016.557930 102*2016.016873 
102*2016.016873 102*2015.475815 
102*2015.475815 102*2014.934758 
102*2014.934758 102*2014.393701 
102*2014.393701 102*2013.852643 
102*2013.852643 102*2013.311586 
102*2013.311586 102*2012.770529 
102*2012.770529 102*2012.229471 
102*2012.229471 102*2011.688414 
102*2011.688414 102*2011.147357 
102*2011.147357 102*2010.606299 
102*2010.606299 102*2010.065242 
102*2010.065242 102*2009.524185 
102*2009.524185 102*2008.983127 
102*2008.983127 102*2008.442070 
102*2008.442070 102*2007.901013 
102*2007.901013 102*2007.359955 
102*2007.359955 102*2006.818898 
102*2006.818898 102*2006.277841 
102*2006.277841 102*2005.736783 
102*2005.736783 102*2005.195726 
102*2005.195726 102*2004.654668 
102*2004.654668 102*2004.113611 
102*2004.113611 102*2003.572554 
102*2003.572554 102*2003.031496 
102*2003.031496 102*2002.490439 
102*2002.490439 102*2001.949382 
102*2001.949382 102*2001.408324 
102*2001.408324 102*2000.867267 
102*2000.867267 102*2000.326210 
102*2000.326210 102*1999.785152 
102*1999.785152 102*1999.244095 
102*2029.338020 102*2028.796962 
102*2028.796962 102*2028.255905 
102*2028.255905 102*2027.714848 
102*2027.714848 102*2027.173790 
102*2027.173790 102*2026.632733 
102*2026.632733 102*2026.091676 
102*2026.091676 102*2025.550618 
102*2025.550618 102*2025.009561 
102*2025.009561 102*2024.468504 
102*2024.468504 102*2023.927446 
102*2023.927446 102*2023.386389 
102*2023.386389 102*2022.845332 
102*2022.845332 102*2022.304274 
102*2022.304274 102*2021.763217 
102*2021.763217 102*2021.222159 
102*2021.222159 102*2020.681102 
102*2020.681102 102*2020.140045 
102*2020.140045 102*2019.598987 
102*2019.598987 102*2019.057930 
102*2019.057930 102*2018.516873 
102*2018.516873 102*2017.975815 
102*2017.975815 102*2017.434758 
102*2017.434758 102*2016.893701 
102*2016.893701 102*2016.352643 
102*2016.352643 102*2015.811586 
102*2015.811586 102*2015.270529 
102*2015.270529 102*2014.729471 
102*2014.729471 102*2014.188414 
102*2014.188414 102*2013.647357 
102*2013.647357 102*2013.106299 
102*2013.106299 102*2012.565242 
102*2012.565242 102*2012.024185 
102*2012.024185 102*2011.483127 
102*2011.483127 102*2010.942070 
102*2010.942070 102*2010.401013 
102*2010.401013 102*2009.859955 
102*2009.859955 102*2009.318898 
102*2009.318898 102*2008.777841 
102*2008.777841 102*2008.236783 
102*2008.236783 102*2007.695726 
102*2007.695726 102*2007.154668 
102*2007.154668 102*2006.613611 
102*2006.613611 102*2006.072554 
102*2006.072554 102*2005.531496 
102*2005.531496 102*2004.990439 
102*2004.990439 102*2004.449382 
102*2004.449382 102*2003.908324 
102*2003.908324 102*2003.367267 
102*2003.367267 102*2002.826210 
102*2002.826210 102*2002.285152 
102*2002.285152 102*2001.744095 
102*2029.338020 102*2028.796962 
102*2028.796962 102*2028.255905 
102*2028.255905 102*2027.714848 
102*2027.714848 102*2027.173790 
102*2027.173790 102*2026.632733 
102*2026.632733 102*2026.091676 
102*2026.091676 102*2025.550618 
102*2025.550618 102*2025.009561 
102*2025.009561 102*2024.468504 
102*2024.468504 102*2023.927446 
102*2023.927446 102*2023.386389 
102*2023.386389 102*2022.845332 
102*2022.845332 102*2022.304274 
102*2022.304274 102*2021.763217 
102*2021.763217 102*2021.222159 
102*2021.222159 102*2020.681102 
102*2020.681102 102*2020.140045 
102*2020.140045 102*2019.598987 
102*2019.598987 102*2019.057930 
102*2019.057930 102*2018.516873 
102*2018.516873 102*2017.975815 
102*2017.975815 102*2017.434758 
102*2017.434758 102*2016.893701 
102*2016.893701 102*2016.352643 
102*2016.352643 102*2015.811586 
102*2015.811586 102*2015.270529 
102*2015.270529 102*2014.729471 
102*2014.729471 102*2014.188414 
102*2014.188414 102*2013.647357 
102*2013.647357 102*2013.106299 
102*2013.106299 102*2012.565242 
102*2012.565242 102*2012.024185 
102*2012.024185 102*2011.483127 
102*2011.483127 102*2010.942070 
102*2010.942070 102*2010.401013 
102*2010.401013 102*2009.859955 
102*2009.859955 102*2009.318898 
102*2009.318898 102*2008.777841 
102*2008.777841 102*2008.236783 
102*2008.236783 102*2007.695726 
102*2007.695726 102*2007.154668 
102*2007.154668 102*2006.613611 
102*2006.613611 102*2006.072554 
102*2006.072554 102*2005.531496 
102*2005.531496 102*2004.990439 
102*2004.990439 102*2004.449382 
102*2004.449382 102*2003.908324 
102*2003.908324 102*2003.367267 
102*2003.367267 102*2002.826210 
102*2002.826210 102*2002.285152 
102*2002.285152 102*2001.744095 
102*2031.838020 102*2031.296962 
102*2031.296962 102*2030.755905 
102*2030.755905 102*2030.214848 
102*2030.214848 102*2029.673790 
102*2029.673790 102*2029.132733 
102*2029.132733 102*2028.591676 
102*2028.591676 102*2028.050618 
102*2028.050618 102*2027.509561 
102*2027.509561 102*2026.968504 
102*2026.968504 102*2026.427446 
102*2026.427446 102*2025.886389 
102*2025.886389 102*2025.345332 
102*2025.345332 102*2024.804274 
102*2024.804274 102*2024.263217 
102*2024.263217 102*2023.722159 
102*2023.722159 102*2023.181102 
102*2023.181102 102*2022.640045 
102*2022.640045 102*2022.098987 
102*2022.098987 102*2021.557930 
102*2021.557930 102*2021.016873 
102*2021.016873 102*2020.475815 
102*2020.475815 102*2019.934758 
102*2019.934758 102*2019.393701 
102*2019.393701 102*2018.852643 
102*2018.852643 102*2018.311586 
102*2018.311586 102*2017.770529 
102*2017.770529 102*2017.229471 
102*2017.229471 102*2016.688414 
102*2016.688414 102*2016.147357 
102*2016.147357 102*2015.606299 
102*2015.606299 102*2015.065242 
102*2015.065242 102*2014.524185 
102*2014.524185 102*2013.983127 
102*2013.983127 102*2013.442070 
102*2013.442070 102*2012.901013 
102*2012.901013 102*2012.359955 
102*2012.359955 102*2011.818898 
102*2011.818898 102*2011.277841 
102*2011.277841 102*2010.736783 
102*2010.736783 102*2010.195726 
102*2010.195726 102*2009.654668 
102*2009.654668 102*2009.113611 
102*2009.113611 102*2008.572554 
102*2008.572554 102*2008.031496 
102*2008.031496 102*2007.490439 
102*2007.490439 102*2006.949382 
102*2006.949382 102*2006.408324 
102*2006.408324 102*2005.867267 
102*2005.867267 102*2005.326210 
102*2005.326210 102*2004.785152 
102*2004.785152 102*2004.244095 
102*2031.838020 102*2031.296962 
102*2031.296962 102*2030.755905 
102*2030.755905 102*2030.214848 
102*2030.214848 102*2029.673790 
102*2029.673790 102*2029.132733 
102*2029.132733 102*2028.591676 
102*2028.591676 102*2028.050618 
102*2028.050618 102*2027.509561 
102*2027.509561 102*2026.968504 
102*2026.968504 102*2026.427446 
102*2026.427446 102*2025.886389 
102*2025.886389 102*2025.345332 
102*2025.345332 102*2024.804274 
102*2024.804274 102*2024.263217 
102*2024.263217 102*2023.722159 
102*2023.722159 102*2023.181102 
102*2023.181102 102*2022.640045 
102*2022.640045 102*2022.098987 
102*2022.098987 102*2021.557930 
102*2021.557930 102*2021.016873 
102*2021.016873 102*2020.475815 
102*2020.475815 102*2019.934758 
102*2019.934758 102*2019.393701 
102*2019.393701 102*2018.852643 
102*2018.852643 102*2018.311586 
102*2018.311586 102*2017.770529 
102*2017.770529 102*2017.229471 
102*2017.229471 102*2016.688414 
102*2016.688414 102*2016.147357 
102*2016.147357 102*2015.606299 
102*2015.606299 102*2015.065242 
102*2015.065242 102*2014.524185 
102*2014.524185 102*2013.983127 
102*2013.983127 102*2013.442070 
102*2013.442070 102*2012.901013 
102*2012.901013 102*2012.359955 
102*2012.359955 102*2011.818898 
102*2011.818898 102*2011.277841 
102*2011.277841 102*2010.736783 
102*2010.736783 102*2010.195726 
102*2010.195726 102*2009.654668 
102*2009.654668 102*2009.113611 
102*2009.113611 102*2008.572554 
102*2008.572554 102*2008.031496 
102*2008.031496 102*2007.490439 
102*2007.490439 102*2006.949382 
102*2006.949382 102*2006.408324 
102*2006.408324 102*2005.867267 
102*2005.867267 102*2005.326210 
102*2005.326210 102*2004.785152 
102*2004.785152 102*2004.244095 
102*2034.338020 102*2033.796962 
102*2033.796962 102*2033.255905 
102*2033.255905 102*2032.714848 
102*2032.714848 102*2032.173790 
102*2032.173790 102*2031.632733 
102*2031.632733 102*2031.091676 
102*2031.091676 102*2030.550618 
102*2030.550618 102*2030.009561 
102*2030.009561 102*2029.468504 
102*2029.468504 102*2028.927446 
102*2028.927446 102*2028.386389 
102*2028.386389 102*2027.845332 
102*2027.845332 102*2027.304274 
102*2027.304274 102*2026.763217 
102*2026.763217 102*2026.222159 
102*2026.222159 102*2025.681102 
102*2025.681102 102*2025.140045 
102*2025.140045 102*2024.598987 
102*2024.598987 102*2024.057930 
102*2024.057930 102*2023.516873 
102*2023.516873 102*2022.975815 
102*2022.975815 102*2022.434758 
102*2022.434758 102*2021.893701 
102*2021.893701 102*2021.352643 
102*2021.352643 102*2020.811586 
102*2020.811586 102*2020.270529 
102*2020.270529 102*2019.729471 
102*2019.729471 102*2019.188414 
102*2019.188414 102*2018.647357 
102*2018.647357 102*2018.106299 
102*2018.106299 102*2017.565242 
102*2017.565242 102*2017.024185 
102*2017.024185 102*2016.483127 
102*2016.483127 102*2015.942070 
102*2015.942070 102*2015.401013 
102*2015.401013 102*2014.859955 
102*2014.859955 102*2014.318898 
102*2014.318898 102*2013.777841 
102*2013.777841 102*2013.236783 
102*2013.236783 102*2012.695726 
102*2012.695726 102*2012.154668 
102*2012.154668 102*2011.613611 
102*2011.613611 102*2011.072554 
102*2011.072554 102*2010.531496 
102*2010.531496 102*2009.990439 
102*2009.990439 102*2009.449382 
102*2009.449382 102*2008.908324 
102*2008.908324 102*2008.367267 
102*2008.367267 102*2007.826210 
102*2007.826210 102*2007.285152 
102*2007.285152 102*2006.744095 
102*2034.338020 102*2033.796962 
102*2033.796962 102*2033.255905 
102*2033.255905 102*2032.714848 
102*2032.714848 102*2032.173790 
102*2032.173790 102*2031.632733 
102*2031.632733 102*2031.091676 
102*2031.091676 102*2030.550618 
102*2030.550618 102*2030.009561 
102*2030.009561 102*2029.468504 
102*2029.468504 102*2028.927446 
102*2028.927446 102*2028.386389 
102*2028.386389 102*2027.845332 
102*2027.845332 102*2027.304274 
102*2027.304274 102*2026.763217 
102*2026.763217 102*2026.222159 
102*2026.222159 102*2025.681102 
102*2025.681102 102*2025.140045 
102*2025.140045 102*2024.598987 
102*2024.598987 102*2024.057930 
102*2024.057930 102*2023.516873 
102*2023.516873 102*2022.975815 
102*2022.975815 102*2022.434758 
102*2022.434758 102*2021.893701 
102*2021.893701 102*2021.352643 
102*2021.352643 102*2020.811586 
102*2020.811586 102*2020.270529 
102*2020.270529 102*2019.729471 
102*2019.729471 102*2019.188414 
102*2019.188414 102*2018.647357 
102*2018.647357 102*2018.106299 
102*2018.106299 102*2017.565242 
102*2017.565242 102*2017.024185 
102*2017.024185 102*2016.483127 
102*2016.483127 102*2015.942070 
102*2015.942070 102*2015.401013 
102*2015.401013 102*2014.859955 
102*2014.859955 102*2014.318898 
102*2014.318898 102*2013.777841 
102*2013.777841 102*2013.236783 
102*2013.236783 102*2012.695726 
102*2012.695726 102*2012.154668 
102*2012.154668 102*2011.613611 
102*2011.613611 102*2011.072554 
102*2011.072554 102*2010.531496 
102*2010.531496 102*2009.990439 
102*2009.990439 102*2009.449382 
102*2009.449382 102*2008.908324 
102*2008.908324 102*2008.367267 
102*2008.367267 102*2007.826210 
102*2007.826210 102*2007.285152 
102*2007.285152 102*2006.744095 
102*2036.838020 102*2036.296962 
102*2036.296962 102*2035.755905 
102*2035.755905 102*2035.214848 
102*2035.214848 102*2034.673790 
102*2034.673790 102*2034.132733 
102*2034.132733 102*2033.591676 
102*2033.591676 102*2033.050618 
102*2033.050618 102*2032.509561 
102*2032.509561 102*2031.968504 
102*2031.968504 102*2031.427446 
102*2031.427446 102*2030.886389 
102*2030.886389 102*2030.345332 
102*2030.345332 102*2029.804274 
102*2029.804274 102*2029.263217 
102*2029.263217 102*2028.722159 
102*2028.722159 102*2028.181102 
102*2028.181102 102*2027.640045 
102*2027.640045 102*2027.098987 
102*2027.098987 102*2026.557930 
102*2026.557930 102*2026.016873 
102*2026.016873 102*2025.475815 
102*2025.475815 102*2024.934758 
102*2024.934758 102*2024.393701 
102*2024.393701 102*2023.852643 
102*2023.852643 102*2023.311586 
102*2023.311586 102*2022.770529 
102*2022.770529 102*2022.229471 
102*2022.229471 102*2021.688414 
102*2021.688414 102*2021.147357 
102*2021.147357 102*2020.606299 
102*2020.606299 102*2020.065242 
102*2020.065242 102*2019.524185 
102*2019.524185 102*2018.983127 
102*2018.983127 102*2018.442070 
102*2018.442070 102*2017.901013 
102*2017.901013 102*2017.359955 
102*2017.359955 102*2016.818898 
102*2016.818898 102*2016.277841 
102*2016.277841 102*2015.736783 
102*2015.736783 102*2015.195726 
102*2015.195726 102*2014.654668 